
    -----------------------------------------------------------------------
          Psi4: An Open-Source Ab Initio Electronic Structure Package
                               Psi4 1.1 release

                         Git: Rev {HEAD} add49b9 


    R. M. Parrish, L. A. Burns, D. G. A. Smith, A. C. Simmonett,
    A. E. DePrince III, E. G. Hohenstein, U. Bozkaya, A. Yu. Sokolov,
    R. Di Remigio, R. M. Richard, J. F. Gonthier, A. M. James,
    H. R. McAlexander, A. Kumar, M. Saitow, X. Wang, B. P. Pritchard,
    P. Verma, H. F. Schaefer III, K. Patkowski, R. A. King, E. F. Valeev,
    F. A. Evangelista, J. M. Turney, T. D. Crawford, and C. D. Sherrill,
    J. Chem. Theory Comput. in press (2017).
    (doi: 10.1021/acs.jctc.7b00174)

    -----------------------------------------------------------------------


    Psi4 started on: Wednesday, 14 June 2017 02:54PM

    Process ID:  16586
    PSIDATADIR: /cbio/jclab/home/chayas/anaconda/envs/py35/share/psi4
    Memory:     500.0 MiB
    Threads:    1
    
  ==> Input File <==

--------------------------------------------------------------------------

memory 1000 mb

molecule butane {
  symmetry C1
  0 1 
  H      1.604   0.760   -8.260
  H      1.745   2.388   -8.880
  H      2.043   1.024   -9.930
  C      2.142   1.395   -8.932
  H      4.169   2.051   -9.210
  H      3.731   1.788   -7.539
  C      3.631   1.416   -8.537
  H      3.665   -0.647   -7.940
  H      4.104   -0.384   -9.610
  C      4.203   -0.012   -8.612
  H      6.159   0.875   -8.637
  H      6.172   -0.871   -8.591
  H      5.778   0.037   -7.152
  C      5.691   0.009   -8.218
  units Angstrom
}

dih_string = "7 10 14 13 80"
set optking fixed_dihedral = $dih_string

optimize('MP2/aug-cc-pvtz')
--------------------------------------------------------------------------

  Memory set to 953.674 MiB by Python driver.
gradient() will perform analytic gradient computation.

*** tstart() called on gpu-1-16.local
*** at Wed Jun 14 14:54:32 2017

    SCF Algorithm Type (re)set to DF.

*** tstart() called on gpu-1-16.local
*** at Wed Jun 14 14:54:32 2017

   => Loading Basis Set <=

    Name: AUG-CC-PVTZ
    Role: ORBITAL
    Keyword: BASIS
    atoms 1-3, 5-6, 8-9, 11-13 entry H          line    34 file /cbio/jclab/home/chayas/anaconda/envs/py35/share/psi4/basis/aug-cc-pvtz.gbs 
    atoms 4, 7, 10, 14         entry C          line   221 file /cbio/jclab/home/chayas/anaconda/envs/py35/share/psi4/basis/aug-cc-pvtz.gbs 


         ---------------------------------------------------------
                                   SCF
            by Justin Turney, Rob Parrish, and Andy Simmonett
                              RHF Reference
                        1 Threads,    953 MiB Core
         ---------------------------------------------------------

  ==> Geometry <==

    Molecular point group: c1
    Full point group: C1

    Geometry (in Angstrom), charge = 0, multiplicity = 1:

       Center              X                  Y                   Z               Mass       
    ------------   -----------------  -----------------  -----------------  -----------------
           H         -2.312793382205     0.057982647118     0.314776029323     1.007825032070
           H         -2.171793382205     1.685982647118    -0.305223970677     1.007825032070
           H         -1.873793382205     0.321982647118    -1.355223970677     1.007825032070
           C         -1.774793382205     0.692982647118    -0.357223970677    12.000000000000
           H          0.252206617795     1.348982647118    -0.635223970677     1.007825032070
           H         -0.185793382205     1.085982647118     1.035776029323     1.007825032070
           C         -0.285793382205     0.713982647118     0.037776029323    12.000000000000
           H         -0.251793382205    -1.349017352882     0.634776029323     1.007825032070
           H          0.187206617795    -1.086017352882    -1.035223970677     1.007825032070
           C          0.286206617795    -0.714017352882    -0.037223970677    12.000000000000
           H          2.242206617795     0.172982647118    -0.062223970677     1.007825032070
           H          2.255206617795    -1.573017352882    -0.016223970677     1.007825032070
           H          1.861206617795    -0.665017352882     1.422776029323     1.007825032070
           C          1.774206617795    -0.693017352882     0.356776029323    12.000000000000

  Running in c1 symmetry.

  Rotational constants: A =      0.76953  B =      0.12464  C =      0.11638 [cm^-1]
  Rotational constants: A =  23070.01005  B =   3736.62907  C =   3488.90379 [MHz]
  Nuclear repulsion =  131.827512910781991

  Charge       = 0
  Multiplicity = 1
  Electrons    = 34
  Nalpha       = 17
  Nbeta        = 17

  ==> Algorithm <==

  SCF Algorithm Type is DF.
  DIIS enabled.
  MOM disabled.
  Fractional occupation disabled.
  Guess Type is SAD.
  Energy threshold   = 1.00e-10
  Density threshold  = 1.00e-10
  Integral threshold = 0.00e+00

  ==> Primary Basis <==

  Basis Set: AUG-CC-PVTZ
    Blend: AUG-CC-PVTZ
    Number of shells: 146
    Number of basis function: 414
    Number of Cartesian functions: 470
    Spherical Harmonics?: true
    Max angular momentum: 3

   => Loading Basis Set <=

    Name: (AUG-CC-PVTZ AUX)
    Role: JKFIT
    Keyword: DF_BASIS_SCF
    atoms 1-3, 5-6, 8-9, 11-13 entry H          line    69 file /cbio/jclab/home/chayas/anaconda/envs/py35/share/psi4/basis/aug-cc-pvtz-jkfit.gbs 
    atoms 4, 7, 10, 14         entry C          line   161 file /cbio/jclab/home/chayas/anaconda/envs/py35/share/psi4/basis/aug-cc-pvtz-jkfit.gbs 

  ==> Pre-Iterations <==

   -------------------------------------------------------
    Irrep   Nso     Nmo     Nalpha   Nbeta   Ndocc  Nsocc
   -------------------------------------------------------
     A        414     414       0       0       0       0
   -------------------------------------------------------
    Total     414     414      17      17      17       0
   -------------------------------------------------------

  ==> Integral Setup <==

  ==> DFJK: Density-Fitted J/K Matrices <==

    J tasked:                  Yes
    K tasked:                  Yes
    wK tasked:                  No
    OpenMP threads:              1
    Integrals threads:           1
    Memory (MB):               715
    Algorithm:                Core
    Integral Cache:           NONE
    Schwarz Cutoff:          1E-12
    Fitting Condition:       1E-12

   => Auxiliary Basis Set <=

  Basis Set: (AUG-CC-PVTZ AUX)
    Blend: AUG-CC-PVTZ-JKFIT
    Number of shells: 260
    Number of basis function: 876
    Number of Cartesian functions: 1074
    Spherical Harmonics?: true
    Max angular momentum: 4

  Minimum eigenvalue in the overlap matrix is 8.3459925254E-06.
  Using Symmetric Orthogonalization.

  SCF Guess: Superposition of Atomic Densities via on-the-fly atomic UHF.

  ==> Iterations <==

                           Total Energy        Delta E     RMS |[F,P]|

   @DF-RHF iter   0:  -158.79503101217983   -1.58795e+02   9.16121e-03 
   @DF-RHF iter   1:  -157.21765394645817    1.57738e+00   1.09133e-03 
   @DF-RHF iter   2:  -157.33190459828805   -1.14251e-01   4.13872e-04 DIIS
   @DF-RHF iter   3:  -157.34896980147934   -1.70652e-02   1.22973e-04 DIIS
   @DF-RHF iter   4:  -157.35133515761953   -2.36536e-03   2.13071e-05 DIIS
   @DF-RHF iter   5:  -157.35141290661917   -7.77490e-05   7.08143e-06 DIIS
   @DF-RHF iter   6:  -157.35142055225353   -7.64563e-06   1.38781e-06 DIIS
   @DF-RHF iter   7:  -157.35142095266636   -4.00413e-07   2.21011e-07 DIIS
   @DF-RHF iter   8:  -157.35142096436917   -1.17028e-08   3.56020e-08 DIIS
   @DF-RHF iter   9:  -157.35142096464233   -2.73161e-10   8.04618e-09 DIIS
   @DF-RHF iter  10:  -157.35142096465739   -1.50635e-11   1.69411e-09 DIIS
   @DF-RHF iter  11:  -157.35142096465822   -8.24230e-13   4.53701e-10 DIIS
   @DF-RHF iter  12:  -157.35142096465640    1.81899e-12   1.20543e-10 DIIS
   @DF-RHF iter  13:  -157.35142096465688   -4.83169e-13   2.06772e-11 DIIS

  ==> Post-Iterations <==

    Orbital Energies (a.u.)
    -----------------------

    Doubly Occupied:                                                      

       1A    -11.207149     2A    -11.206237     3A    -11.198663  
       4A    -11.198202     5A     -1.070699     6A     -0.981137  
       7A     -0.861517     8A     -0.795034     9A     -0.647342  
      10A     -0.587555    11A     -0.575747    12A     -0.570866  
      13A     -0.513997    14A     -0.503682    15A     -0.475255  
      16A     -0.468634    17A     -0.441442  

    Virtual:                                                              

      18A      0.032282    19A      0.037234    20A      0.039545  
      21A      0.040790    22A      0.057059    23A      0.058510  
      24A      0.059792    25A      0.061039    26A      0.081905  
      27A      0.083319    28A      0.098525    29A      0.112474  
      30A      0.123181    31A      0.130716    32A      0.136172  
      33A      0.142056    34A      0.143278    35A      0.146393  
      36A      0.148373    37A      0.159854    38A      0.161414  
      39A      0.167264    40A      0.170865    41A      0.202006  
      42A      0.209112    43A      0.210898    44A      0.229830  
      45A      0.247389    46A      0.249615    47A      0.252594  
      48A      0.269642    49A      0.276761    50A      0.282683  
      51A      0.284370    52A      0.315532    53A      0.318075  
      54A      0.330912    55A      0.337017    56A      0.342372  
      57A      0.351173    58A      0.357650    59A      0.358459  
      60A      0.362677    61A      0.373577    62A      0.374599  
      63A      0.383312    64A      0.386863    65A      0.389953  
      66A      0.391992    67A      0.396830    68A      0.402399  
      69A      0.407427    70A      0.413737    71A      0.422521  
      72A      0.429688    73A      0.443727    74A      0.448923  
      75A      0.455690    76A      0.462129    77A      0.464089  
      78A      0.465075    79A      0.474850    80A      0.481294  
      81A      0.487541    82A      0.493795    83A      0.501491  
      84A      0.504030    85A      0.509210    86A      0.513262  
      87A      0.520287    88A      0.533044    89A      0.533579  
      90A      0.537351    91A      0.545432    92A      0.560146  
      93A      0.567571    94A      0.572954    95A      0.586585  
      96A      0.591719    97A      0.602469    98A      0.611308  
      99A      0.622008   100A      0.631646   101A      0.638859  
     102A      0.660592   103A      0.681054   104A      0.686297  
     105A      0.700943   106A      0.712204   107A      0.762583  
     108A      0.779104   109A      0.797234   110A      0.814721  
     111A      0.822501   112A      0.827670   113A      0.836831  
     114A      0.844799   115A      0.849432   116A      0.860259  
     117A      0.864575   118A      0.867252   119A      0.886226  
     120A      0.892190   121A      0.897125   122A      0.902881  
     123A      0.906527   124A      0.922439   125A      0.926845  
     126A      0.931599   127A      0.937204   128A      0.943406  
     129A      0.944276   130A      0.960510   131A      0.967051  
     132A      0.971424   133A      0.978830   134A      0.986270  
     135A      0.994130   136A      1.014950   137A      1.019829  
     138A      1.034975   139A      1.048961   140A      1.065665  
     141A      1.071962   142A      1.081122   143A      1.093905  
     144A      1.110567   145A      1.114099   146A      1.123785  
     147A      1.130729   148A      1.133650   149A      1.141745  
     150A      1.159089   151A      1.164266   152A      1.166622  
     153A      1.176979   154A      1.193141   155A      1.202154  
     156A      1.219780   157A      1.224095   158A      1.231962  
     159A      1.246322   160A      1.256426   161A      1.260892  
     162A      1.265286   163A      1.273602   164A      1.279794  
     165A      1.296189   166A      1.304052   167A      1.321594  
     168A      1.327700   169A      1.342166   170A      1.352962  
     171A      1.360471   172A      1.388624   173A      1.400993  
     174A      1.423949   175A      1.432300   176A      1.442125  
     177A      1.462437   178A      1.482437   179A      1.499440  
     180A      1.507832   181A      1.522283   182A      1.526479  
     183A      1.551880   184A      1.559325   185A      1.563256  
     186A      1.586619   187A      1.593592   188A      1.616388  
     189A      1.632312   190A      1.645950   191A      1.649779  
     192A      1.652203   193A      1.677498   194A      1.692637  
     195A      1.695414   196A      1.702787   197A      1.711438  
     198A      1.721221   199A      1.733472   200A      1.743415  
     201A      1.745157   202A      1.759414   203A      1.766097  
     204A      1.777888   205A      1.782861   206A      1.795566  
     207A      1.797922   208A      1.809772   209A      1.822097  
     210A      1.846442   211A      1.864404   212A      1.872405  
     213A      1.890619   214A      1.904271   215A      1.916209  
     216A      1.926993   217A      1.961089   218A      1.974956  
     219A      1.986547   220A      1.993158   221A      2.001133  
     222A      2.009109   223A      2.033264   224A      2.043574  
     225A      2.048878   226A      2.066648   227A      2.092280  
     228A      2.102698   229A      2.124189   230A      2.145432  
     231A      2.162622   232A      2.193708   233A      2.196557  
     234A      2.207742   235A      2.243182   236A      2.256120  
     237A      2.264630   238A      2.281520   239A      2.301415  
     240A      2.310342   241A      2.333611   242A      2.335853  
     243A      2.348689   244A      2.359322   245A      2.372161  
     246A      2.375744   247A      2.424765   248A      2.444833  
     249A      2.466713   250A      2.479757   251A      2.506870  
     252A      2.554041   253A      2.603509   254A      2.622228  
     255A      2.640126   256A      2.663277   257A      2.716583  
     258A      2.888993   259A      2.923993   260A      3.009582  
     261A      3.235084   262A      3.249271   263A      3.303449  
     264A      3.372143   265A      3.389631   266A      3.421292  
     267A      3.450891   268A      3.454927   269A      3.471412  
     270A      3.485290   271A      3.525284   272A      3.542932  
     273A      3.571970   274A      3.572300   275A      3.597052  
     276A      3.609448   277A      3.629748   278A      3.664951  
     279A      3.685338   280A      3.694801   281A      3.714675  
     282A      3.719682   283A      3.737023   284A      3.743767  
     285A      3.757274   286A      3.769679   287A      3.779594  
     288A      3.799490   289A      3.810604   290A      3.824018  
     291A      3.846362   292A      3.858503   293A      3.877147  
     294A      3.889028   295A      3.915775   296A      3.928273  
     297A      3.940046   298A      3.950097   299A      3.976994  
     300A      3.997010   301A      4.008354   302A      4.017007  
     303A      4.022789   304A      4.025054   305A      4.049279  
     306A      4.058540   307A      4.071767   308A      4.084795  
     309A      4.124791   310A      4.182925   311A      4.198568  
     312A      4.212418   313A      4.231417   314A      4.240156  
     315A      4.251680   316A      4.276885   317A      4.280653  
     318A      4.290219   319A      4.309709   320A      4.333349  
     321A      4.339407   322A      4.372902   323A      4.381887  
     324A      4.411290   325A      4.427217   326A      4.443075  
     327A      4.526650   328A      4.551854   329A      4.577328  
     330A      4.590343   331A      4.632186   332A      4.666393  
     333A      4.687184   334A      4.698899   335A      4.718666  
     336A      4.736237   337A      4.745796   338A      4.751164  
     339A      4.773399   340A      4.795586   341A      4.808111  
     342A      4.861703   343A      4.869312   344A      4.884155  
     345A      4.890127   346A      4.916567   347A      4.942241  
     348A      4.955318   349A      4.974662   350A      5.006517  
     351A      5.043146   352A      5.069548   353A      5.084118  
     354A      5.094664   355A      5.131692   356A      5.171290  
     357A      5.181093   358A      5.200036   359A      5.207597  
     360A      5.238750   361A      5.254633   362A      5.270513  
     363A      5.276516   364A      5.310470   365A      5.319052  
     366A      5.340153   367A      5.391343   368A      5.414117  
     369A      5.438719   370A      5.449637   371A      5.458761  
     372A      5.468222   373A      5.498937   374A      5.519247  
     375A      5.584334   376A      5.602914   377A      5.624989  
     378A      5.643907   379A      5.680301   380A      5.684026  
     381A      5.698354   382A      5.758393   383A      5.777202  
     384A      5.790863   385A      5.820841   386A      5.862156  
     387A      5.906729   388A      5.918905   389A      5.958282  
     390A      6.025087   391A      6.120693   392A      6.157345  
     393A      6.175097   394A      6.191345   395A      6.245044  
     396A      6.264894   397A      6.271878   398A      6.315378  
     399A      6.318189   400A      6.357727   401A      6.407816  
     402A      6.437488   403A      6.556884   404A      6.570410  
     405A      6.747789   406A      6.784043   407A      6.830815  
     408A      6.849803   409A      6.857797   410A      6.984127  
     411A     18.069508   412A     18.381423   413A     18.671569  
     414A     18.953906  

    Final Occupation by Irrep:
              A 
    DOCC [    17 ]

  Energy converged.

  @DF-RHF Final Energy:  -157.35142096465688

   => Energetics <=

    Nuclear Repulsion Energy =            131.8275129107819907
    One-Electron Energy =                -471.7515562274645049
    Two-Electron Energy =                 182.5726223520256326
    DFT Exchange-Correlation Energy =       0.0000000000000000
    Empirical Dispersion Energy =           0.0000000000000000
    PCM Polarization Energy =               0.0000000000000000
    EFP Energy =                            0.0000000000000000
    Total Energy =                       -157.3514209646568816



Properties will be evaluated at   0.000000,   0.000000,   0.000000 Bohr

Properties computed using the SCF density matrix

  Nuclear Dipole Moment: (a.u.)
     X:     0.0019      Y:     0.0008      Z:    -0.0012

  Electronic Dipole Moment: (a.u.)
     X:    -0.0024      Y:    -0.0016      Z:     0.0024

  Dipole Moment: (a.u.)
     X:    -0.0005      Y:    -0.0009      Z:     0.0012     Total:     0.0016

  Dipole Moment: (Debye)
     X:    -0.0012      Y:    -0.0022      Z:     0.0031     Total:     0.0040


*** tstop() called on gpu-1-16.local at Wed Jun 14 14:55:58 2017
Module time:
	user time   =      85.36 seconds =       1.42 minutes
	system time =       0.72 seconds =       0.01 minutes
	total time  =         86 seconds =       1.43 minutes
Total time:
	user time   =      85.37 seconds =       1.42 minutes
	system time =       0.72 seconds =       0.01 minutes
	total time  =         86 seconds =       1.43 minutes

  //>>>>>>>>>>>>>>>>>>>>>>>>>>>>>>>>>>>//
  //               DFMP2               //
  //<<<<<<<<<<<<<<<<<<<<<<<<<<<<<<<<<<<//

   => Loading Basis Set <=

    Name: (AUG-CC-PVTZ AUX)
    Role: RIFIT
    Keyword: DF_BASIS_MP2
    atoms 1-3, 5-6, 8-9, 11-13 entry H          line    29 file /cbio/jclab/home/chayas/anaconda/envs/py35/share/psi4/basis/aug-cc-pvtz-ri.gbs 
    atoms 4, 7, 10, 14         entry C          line   147 file /cbio/jclab/home/chayas/anaconda/envs/py35/share/psi4/basis/aug-cc-pvtz-ri.gbs 

	 --------------------------------------------------------
	                          DF-MP2                         
	      2nd-Order Density-Fitted Moller-Plesset Theory     
	              RMP2 Wavefunction,   1 Threads             
	                                                         
	        Rob Parrish, Justin Turney, Andy Simmonett,      
	           Ed Hohenstein, and C. David Sherrill          
	 --------------------------------------------------------

   => Auxiliary Basis Set <=

  Basis Set: (AUG-CC-PVTZ AUX)
    Blend: AUG-CC-PVTZ-RI
    Number of shells: 252
    Number of basis function: 884
    Number of Cartesian functions: 1094
    Spherical Harmonics?: true
    Max angular momentum: 4

	 --------------------------------------------------------
	                 NBF =   414, NAUX =   884
	 --------------------------------------------------------
	   CLASS    FOCC     OCC    AOCC    AVIR     VIR    FVIR
	   PAIRS       0      17      17     397     397       0
	 --------------------------------------------------------


         ------------------------------------------------------------
                                     CPHF                           
                                  Rob Parrish                       
         ------------------------------------------------------------

  ==> Geometry <==

    Molecular point group: c1
    Full point group: C1

    Geometry (in Angstrom), charge = 0, multiplicity = 1:

       Center              X                  Y                   Z               Mass       
    ------------   -----------------  -----------------  -----------------  -----------------
           H         -2.312793382205     0.057982647118     0.314776029323     1.007825032070
           H         -2.171793382205     1.685982647118    -0.305223970677     1.007825032070
           H         -1.873793382205     0.321982647118    -1.355223970677     1.007825032070
           C         -1.774793382205     0.692982647118    -0.357223970677    12.000000000000
           H          0.252206617795     1.348982647118    -0.635223970677     1.007825032070
           H         -0.185793382205     1.085982647118     1.035776029323     1.007825032070
           C         -0.285793382205     0.713982647118     0.037776029323    12.000000000000
           H         -0.251793382205    -1.349017352882     0.634776029323     1.007825032070
           H          0.187206617795    -1.086017352882    -1.035223970677     1.007825032070
           C          0.286206617795    -0.714017352882    -0.037223970677    12.000000000000
           H          2.242206617795     0.172982647118    -0.062223970677     1.007825032070
           H          2.255206617795    -1.573017352882    -0.016223970677     1.007825032070
           H          1.861206617795    -0.665017352882     1.422776029323     1.007825032070
           C          1.774206617795    -0.693017352882     0.356776029323    12.000000000000

  Nuclear repulsion =  131.827512910781991
  Reference energy  = -157.351420964656882

  ==> Basis Set <==

  Basis Set: AUG-CC-PVTZ
    Blend: AUG-CC-PVTZ
    Number of shells: 146
    Number of basis function: 414
    Number of Cartesian functions: 470
    Spherical Harmonics?: true
    Max angular momentum: 3

  ==> CGRSolver (by Rob Parrish) <==

   Number of roots    =         1
   Preconditioning    =    JACOBI
   Convergence cutoff =     1E-06
   Maximum iterations =       100

  ==> CPHFRHamiltonian (by Rob Parrish) <== 

  ==> DFJK: Density-Fitted J/K Matrices <==

    J tasked:                  Yes
    K tasked:                  Yes
    wK tasked:                  No
    OpenMP threads:              1
    Integrals threads:           1
    Memory (MB):               715
    Algorithm:                Core
    Integral Cache:           NONE
    Schwarz Cutoff:          1E-12
    Fitting Condition:       1E-12

   => Auxiliary Basis Set <=

  Basis Set: (AUG-CC-PVTZ AUX)
    Blend: AUG-CC-PVTZ-JKFIT
    Number of shells: 260
    Number of basis function: 876
    Number of Cartesian functions: 1074
    Spherical Harmonics?: true
    Max angular momentum: 4

  ==> CPHF Iterations <==

  => Iterations <=

             Iter  Converged  Remaining    Residual
  CGR           1          0          1   8.159E-02
  CGR           2          0          1   1.305E-02
  CGR           3          0          1   3.413E-03
  CGR           4          0          1   8.052E-04
  CGR           5          0          1   1.185E-04
  CGR           6          0          1   2.128E-05
  CGR           7          0          1   3.761E-06
  CGR           8          1          0   8.617E-07

    CGRSolver converged.

  ==> DFCorrGrad: Density-Fitted Correlated Gradients <==

    OpenMP threads:              1
    Integrals threads:           1
    Memory (MB):               715
    Schwarz Cutoff:          0E+00
    Fitting Condition:       1E-12

   => Auxiliary Basis Set <=

  Basis Set: (AUG-CC-PVTZ AUX)
    Blend: AUG-CC-PVTZ-JKFIT
    Number of shells: 260
    Number of basis function: 876
    Number of Cartesian functions: 1074
    Spherical Harmonics?: true
    Max angular momentum: 4

	-----------------------------------------------------------
	 ==================> DF-MP2 Energies <==================== 
	-----------------------------------------------------------
	 Reference Energy          =    -157.3514209646568816 [Eh]
	 Singles Energy            =      -0.0000000000000000 [Eh]
	 Same-Spin Energy          =      -0.1654004170925413 [Eh]
	 Opposite-Spin Energy      =      -0.6388839242771859 [Eh]
	 Correlation Energy        =      -0.8042843413697272 [Eh]
	 Total Energy              =    -158.1557053060266185 [Eh]
	-----------------------------------------------------------
	 ================> DF-SCS-MP2 Energies <================== 
	-----------------------------------------------------------
	 SCS Same-Spin Scale       =       0.3333333333333333 [-]
	 SCS Opposite-Spin Scale   =       1.2000000000000000 [-]
	 SCS Same-Spin Energy      =      -0.0551334723641804 [Eh]
	 SCS Opposite-Spin Energy  =      -0.7666607091326231 [Eh]
	 SCS Correlation Energy    =      -0.8217941814968035 [Eh]
	 SCS Total Energy          =    -158.1732151461536944 [Eh]
	-----------------------------------------------------------


  -Total Gradient:
     Atom            X                  Y                   Z
    ------   -----------------  -----------------  -----------------
       1        0.007956247243     0.006728004262    -0.006309897604
       2        0.008175295997    -0.009375244049     0.000613419550
       3        0.003199320759     0.004204224827     0.011235262601
       4       -0.025099034790    -0.007051094321    -0.008324625829
       5       -0.007750110074    -0.007814991905     0.006134703065
       6       -0.003320887816    -0.005870962139    -0.011614727454
       7        0.022792398666     0.031266735503     0.010278357719
       8        0.008119087951     0.008840931299    -0.005511220924
       9        0.003678332121     0.004761916499     0.011668611020
      10       -0.020518830515    -0.031136620232    -0.009392543871
      11       -0.007475569325    -0.008468791349     0.004257013477
      12       -0.009067375760     0.009004437886     0.001435848912
      13       -0.003833656298    -0.001493322628    -0.011244504015
      14        0.023144781842     0.006404776344     0.006774303354


*** tstop() called on gpu-1-16.local at Wed Jun 14 15:00:51 2017
Module time:
	user time   =     374.76 seconds =       6.25 minutes
	system time =       3.75 seconds =       0.06 minutes
	total time  =        379 seconds =       6.32 minutes
Total time:
	user time   =     374.77 seconds =       6.25 minutes
	system time =       3.75 seconds =       0.06 minutes
	total time  =        379 seconds =       6.32 minutes

			-----------------------------------------
			 OPTKING 2.0: for geometry optimizations 
			  - R.A. King,  Bethel University        
			-----------------------------------------

	Internal coordinates to be generated automatically.
	Detected frag 1 with atoms:  1 2 3 4 5 6 7 8 9 10 11 12 13 14
	---Fragment 1 Bond Connectivity---
	 1 : 4
	 2 : 4
	 3 : 4
	 4 : 1 2 3 7
	 5 : 7
	 6 : 7
	 7 : 4 5 6 10
	 8 : 10
	 9 : 10
	 10 : 7 8 9 14
	 11 : 14
	 12 : 14
	 13 : 14
	 14 : 10 11 12 13

	Assuming in current code that numbering for constraints corresponds to unified fragment.
	Fixed dihedral atom list: 
	     7    10    14    13
	---Fragment 1 Geometry and Gradient---
	 H          -4.3705460943        0.1095713235        0.5948404886
	 H          -4.1040947096        3.1860454679       -0.5767897138
	 H          -3.5409563220        0.6084590226       -2.5610021533
	 C          -3.3538734348        1.3095474179       -0.6750554727
	 H           0.4766014365        2.5492077611       -1.2003993376
	 H          -0.3510986097        2.0522097881        1.9573330304
	 C          -0.5400712230        1.3492316667        0.0713863498
	 H          -0.4758205344       -2.5492733455        1.1995528511
	 H           0.3537692379       -2.0522753725       -1.9562897908
	 C           0.5408521251       -1.3492972511       -0.0703431102
	 H           4.2371564410        0.3268898288       -0.1175862635
	 H           4.2617228807       -2.9725719992       -0.0306588614
	 H           3.5171707843       -1.2567006706        2.6886570439
	 C           3.3527646108       -1.3096130023        0.6742089862
	             0.0079562472        0.0067280043       -0.0063098976
	             0.0081752960       -0.0093752440        0.0006134195
	             0.0031993208        0.0042042248        0.0112352626
	            -0.0250990348       -0.0070510943       -0.0083246258
	            -0.0077501101       -0.0078149919        0.0061347031
	            -0.0033208878       -0.0058709621       -0.0116147275
	             0.0227923987        0.0312667355        0.0102783577
	             0.0081190880        0.0088409313       -0.0055112209
	             0.0036783321        0.0047619165        0.0116686110
	            -0.0205188305       -0.0311366202       -0.0093925439
	            -0.0074755693       -0.0084687913        0.0042570135
	            -0.0090673758        0.0090044379        0.0014358489
	            -0.0038336563       -0.0014933226       -0.0112445040
	             0.0231447818        0.0064047763        0.0067743034

	Previous optimization step data not found.  Starting new optimization.

	---Fragment 1 Intrafragment Coordinates---
	 - Coordinate -           - BOHR/RAD -       - ANG/DEG -
	 R(1,4)           =         2.021436	       1.069698
	 R(2,4)           =         2.023298	       1.070683
	 R(3,4)           =         2.020723	       1.069320
	 R(4,7)           =         2.911397	       1.540645
	 R(5,7)           =         2.022623	       1.070326
	 R(6,7)           =         2.021555	       1.069761
	 R(7,10)          =         2.910419	       1.540128
	 R(8,10)          =         2.021436	       1.069698
	 R(9,10)          =         2.021379	       1.069668
	 R(10,14)         =         2.909087	       1.539422
	 R(11,14)         =         2.021690	       1.069832
	 R(12,14)         =         2.021998	       1.069995
	 R(13,14)         =         2.021838	       1.069911
	 B(1,4,2)         =         1.910870	     109.484805
	 B(1,4,3)         =         1.911121	     109.499161
	 B(1,4,7)         =         1.910399	     109.457783
	 B(2,4,3)         =         1.910042	     109.437340
	 B(2,4,7)         =         1.910564	     109.467262
	 B(3,4,7)         =         1.910803	     109.480971
	 B(4,7,5)         =         1.909937	     109.431343
	 B(4,7,6)         =         1.911630	     109.528316
	 B(4,7,10)        =         1.911154	     109.501062
	 B(5,7,6)         =         1.910605	     109.469614
	 B(5,7,10)        =         1.910047	     109.437654
	 B(6,7,10)        =         1.910425	     109.459295
	 B(7,10,8)        =         1.910303	     109.452301
	 B(7,10,9)        =         1.910824	     109.482155
	 B(7,10,14)       =         1.911213	     109.504437
	 B(8,10,9)        =         1.910417	     109.458846
	 B(8,10,14)       =         1.910766	     109.478806
	 B(9,10,14)       =         1.910276	     109.450772
	 B(10,14,11)      =         1.910961	     109.490021
	 B(10,14,12)      =         1.911424	     109.516525
	 B(10,14,13)      =         1.911299	     109.509347
	 B(11,14,12)      =         1.909812	     109.424147
	 B(11,14,13)      =         1.910771	     109.479096
	 B(12,14,13)      =         1.909532	     109.408124
	 D(1,4,7,5)       =         3.140997	     179.965873
	 D(1,4,7,6)       =        -1.047644	     -60.025575
	 D(1,4,7,10)      =         1.047427	      60.013132
	 D(2,4,7,5)       =        -1.047689	     -60.028143
	 D(2,4,7,6)       =         1.046856	      59.980409
	 D(2,4,7,10)      =        -3.141259	    -179.980883
	 D(3,4,7,5)       =         1.046044	      59.933911
	 D(3,4,7,6)       =         3.140588	     179.942463
	 D(3,4,7,10)      =        -1.047526	     -60.018830
	 D(4,7,10,8)      =        -1.047368	     -60.009777
	 D(4,7,10,9)      =         1.046677	      59.970178
	 D(4,7,10,14)     =         3.141107	     179.972182
	 D(5,7,10,8)      =        -3.140871	    -179.958653
	 D(5,7,10,9)      =        -1.046826	     -59.978698
	 D(5,7,10,14)     =         1.047604	      60.023306
	 D(6,7,10,8)      =         1.048439	      60.071149
	 D(6,7,10,9)      =        -3.140701	    -179.948896
	 D(6,7,10,14)     =        -1.046271	     -59.946893
	 D(7,10,14,11)    =        -0.698682	     -40.031513
	 D(7,10,14,12)    =        -2.792756	    -160.013127
	 D(7,10,14,13)    =         1.396491	      80.013039
	 D(8,10,14,11)    =        -2.793109	    -160.033335
	 D(8,10,14,12)    =         1.396002	      79.985051
	 D(8,10,14,13)    =        -0.697936	     -39.988783
	 D(9,10,14,11)    =         1.396084	      79.989695
	 D(9,10,14,12)    =        -0.697991	     -39.991919
	 D(9,10,14,13)    =        -2.791929	    -159.965754

	Current energy   :      -158.1557053060

	Generating empirical Hessian (Schlegel '84) for each fragment.
	Adding user-defined constraint: Fragment 1; Coordinate 58:
		Value =     1.396491; Fixed value    =     1.396263
		Force =    -0.000114; Force constant =     0.500000
	Removing off-diagonal coupling between coordinate 58 and others.
	Taking RFO optimization step.
	Going to follow RFO solution 1.
	Using RFO vector 1.

	Determining step-restricting scale parameter for RS-RFO.
	Maximum step size allowed    0.10000

	 Iter      |step|        alpha        rfo_root  
	------------------------------------------------
	    0     0.19513       1.00000           1
	    1     0.15418       5.49509           1
	    2     0.12279      16.28752           1
	    3     0.10595      28.83198           1
	    4     0.10056      34.70074           1
	    5     0.10001      35.37574           1
	------------------------------------------------
	Norm of target step-size    0.10001
	Projected energy change by RFO approximation:        -0.0045271639

	Back-transformation to cartesian coordinates...
	Could not converge backtransformation.
	Using first guess instead.

	--- Internal Coordinate Step in ANG or DEG, aJ/ANG or AJ/DEG ---
	 ---------------------------------------------------------------------------
	   Coordinate                Previous        Force       Change         New 
	   ----------                --------       ------       ------       ------
	    1 R(1,4)          =      1.069698     0.098531     0.012079     1.081777
	    2 R(2,4)          =      1.070683     0.096365     0.011833     1.082516
	    3 R(3,4)          =      1.069320     0.100848     0.012349     1.081669
	    4 R(4,7)          =      1.540645    -0.052431    -0.007626     1.533018
	    5 R(5,7)          =      1.070326     0.102073     0.012483     1.082809
	    6 R(6,7)          =      1.069761     0.108649     0.013270     1.083030
	    7 R(7,10)         =      1.540128    -0.074921    -0.010792     1.529336
	    8 R(8,10)         =      1.069698     0.105405     0.012875     1.082572
	    9 R(9,10)         =      1.069668     0.106142     0.012963     1.082631
	   10 R(10,14)        =      1.539422    -0.025235    -0.003617     1.535806
	   11 R(11,14)        =      1.069832     0.097157     0.011978     1.081810
	   12 R(12,14)        =      1.069995     0.098718     0.012103     1.082098
	   13 R(13,14)        =      1.069911     0.095192     0.011674     1.081585
	   14 B(1,4,2)        =    109.484805    -0.000254    -0.586449   108.898356
	   15 B(1,4,3)        =    109.499161    -0.000172    -0.456601   109.042560
	   16 B(1,4,7)        =    109.457783     0.000143     0.324743   109.782526
	   17 B(2,4,3)        =    109.437340    -0.000240    -0.554059   108.883281
	   18 B(2,4,7)        =    109.467262     0.000412     1.007237   110.474499
	   19 B(3,4,7)        =    109.480971     0.000112     0.249713   109.730684
	   20 B(4,7,5)        =    109.431343    -0.000106    -0.109501   109.321842
	   21 B(4,7,6)        =    109.528316    -0.000136    -0.189471   109.338845
	   22 B(4,7,10)       =    109.501062     0.000647     1.394170   110.895232
	   23 B(5,7,6)        =    109.469614     0.000013    -0.223912   109.245701
	   24 B(5,7,10)       =    109.437654    -0.000227    -0.491382   108.946272
	   25 B(6,7,10)       =    109.459295    -0.000192    -0.390060   109.069234
	   26 B(7,10,8)       =    109.452301    -0.000229    -0.462482   108.989818
	   27 B(7,10,9)       =    109.482155    -0.000228    -0.528964   108.953192
	   28 B(7,10,14)      =    109.504437     0.000670     1.446445   110.950882
	   29 B(8,10,9)       =    109.458846     0.000006    -0.258421   109.200425
	   30 B(8,10,14)      =    109.478806    -0.000123    -0.144087   109.334720
	   31 B(9,10,14)      =    109.450772    -0.000096    -0.064580   109.386192
	   32 B(10,14,11)     =    109.490021     0.000146     0.360852   109.850873
	   33 B(10,14,12)     =    109.516525     0.000416     0.986581   110.503106
	   34 B(10,14,13)     =    109.509347     0.000198     0.461241   109.970588
	   35 B(11,14,12)     =    109.424147    -0.000263    -0.613968   108.810179
	   36 B(11,14,13)     =    109.479096    -0.000201    -0.466188   109.012908
	   37 B(12,14,13)     =    109.408124    -0.000299    -0.750251   108.657873
	   38 D(1,4,7,5)      =    179.965873     0.000008     0.112907   180.078780
	   39 D(1,4,7,6)      =    -60.025575    -0.000022    -0.342277   -60.367852
	   40 D(1,4,7,10)     =     60.013132    -0.000004    -0.075864    59.937268
	   41 D(2,4,7,5)      =    -60.028143     0.000014     0.220095   -59.808047
	   42 D(2,4,7,6)      =     59.980409    -0.000016    -0.235089    59.745320
	   43 D(2,4,7,10)     =   -179.980883     0.000002     0.031324  -179.949559
	   44 D(3,4,7,5)      =     59.933911     0.000021     0.319360    60.253271
	   45 D(3,4,7,6)      =    179.942463    -0.000010    -0.135824   179.806638
	   46 D(3,4,7,10)     =    -60.018830     0.000008     0.130589   -59.888241
	   47 D(4,7,10,8)     =    -60.009777     0.000033     0.502712   -59.507065
	   48 D(4,7,10,9)     =     59.970178    -0.000029    -0.404591    59.565588
	   49 D(4,7,10,14)    =    179.972182     0.000006     0.077138   180.049320
	   50 D(5,7,10,8)     =   -179.958653     0.000004     0.086670  -179.871983
	   51 D(5,7,10,9)     =    -59.978698    -0.000058    -0.820632   -60.799330
	   52 D(5,7,10,14)    =     60.023306    -0.000023    -0.338903    59.684402
	   53 D(6,7,10,8)     =     60.071149     0.000059     0.887067    60.958216
	   54 D(6,7,10,9)     =   -179.948896    -0.000003    -0.020235  -179.969132
	   55 D(6,7,10,14)    =    -59.946893     0.000032     0.461494   -59.485399
	   56 D(7,10,14,11)   =    -40.031513    -0.000006    -0.084097   -40.115610
	   57 D(7,10,14,12)   =   -160.013127    -0.000012    -0.168115  -160.181242
	   58 D(7,10,14,13)   =     80.013039    -0.000014    -0.147518    79.865521
	   59 D(8,10,14,11)   =   -160.033335    -0.000019    -0.321125  -160.354459
	   60 D(8,10,14,12)   =     79.985051    -0.000024    -0.405143    79.579908
	   61 D(8,10,14,13)   =    -39.988783    -0.000027    -0.384546   -40.373329
	   62 D(9,10,14,11)   =     79.989695     0.000010     0.121395    80.111090
	   63 D(9,10,14,12)   =    -39.991919     0.000005     0.037377   -39.954543
	   64 D(9,10,14,13)   =   -159.965754     0.000003     0.057974  -159.907780
	 ---------------------------------------------------------------------------
	Successfully symmetrized geometry.
	 Forces used to impose fixed constraints are not included.
	  Forces zeroed: 58 

  ==> Convergence Check <==

  Measures of convergence in internal coordinates in au.
  Criteria marked as inactive (o), active & met (*), and active & unmet ( ).
  --------------------------------------------------------------------------------------------- ~
   Step     Total Energy     Delta E     MAX Force     RMS Force      MAX Disp      RMS Disp    ~
  --------------------------------------------------------------------------------------------- ~
    Convergence Criteria    1.00e-06 *    3.00e-04 *             o    1.20e-03 *             o  ~
  --------------------------------------------------------------------------------------------- ~
      1    -158.15570531   -1.58e+02      1.32e-02      5.60e-03 o    2.52e-02      1.25e-02 o  ~
  ---------------------------------------------------------------------------------------------

	Writing optimization data to binary file.
	Structure for next step:
	Cartesian Geometry (in Angstrom)
	    H    -2.3310085689   0.0589400257   0.3188090149
	    H    -2.1877433647   1.6987500292  -0.3066166091
	    H    -1.8881750453   0.3244830052  -1.3655865188
	    C    -1.7779904868   0.6980206521  -0.3564595392
	    H     0.2505012139   1.3481330570  -0.6457267716
	    H    -0.1921624761   1.0836500434   1.0432453758
	    C    -0.2954506822   0.7055639711   0.0336231923
	    H    -0.2530786469  -1.3476556830   0.6425565130
	    H     0.1900136950  -1.0799236354  -1.0447308897
	    C     0.2937372369  -0.7040636417  -0.0347504729
	    H     2.2659340385   0.1717423279  -0.0627537440
	    H     2.2720025628  -1.5871472952  -0.0135762054
	    H     1.8765870695  -0.6715678006   1.4338257276
	    C     1.7787261034  -0.6981679961   0.3570053376
			--------------------------
			 OPTKING Finished Execution 
			--------------------------

    Structure for next step:
    Molecular point group: c1
    Full point group: C1

    Geometry (in Angstrom), charge = 0, multiplicity = 1:

    H           -2.330856343142     0.058670815860     0.318938774864
    H           -2.187591138994     1.698480819410    -0.306486849188
    H           -1.888022819590     0.324213795411    -1.365456758831
    C           -1.777838261028     0.697751442259    -0.356329779284
    H            0.250653439597     1.347863847197    -0.645597011674
    H           -0.192010250389     1.083380833567     1.043375135777
    C           -0.295298456450     0.705294761313     0.033752952204
    H           -0.252926421190    -1.347924892792     0.642686272966
    H            0.190165920768    -1.080192845271    -1.044601129774
    C            0.293889462624    -0.704332851541    -0.034620712938
    H            2.266086264201     0.171473118039    -0.062623984062
    H            2.272154788552    -1.587416505044    -0.013446445426
    H            1.876739295177    -0.671837010398     1.433955487587
    C            1.778878329163    -0.698437205955     0.357135097510

gradient() will perform analytic gradient computation.

*** tstart() called on gpu-1-16.local
*** at Wed Jun 14 15:00:51 2017

    SCF Algorithm Type (re)set to DF.

*** tstart() called on gpu-1-16.local
*** at Wed Jun 14 15:00:51 2017

   => Loading Basis Set <=

    Name: AUG-CC-PVTZ
    Role: ORBITAL
    Keyword: BASIS
    atoms 1-3, 5-6, 8-9, 11-13 entry H          line    34 file /cbio/jclab/home/chayas/anaconda/envs/py35/share/psi4/basis/aug-cc-pvtz.gbs 
    atoms 4, 7, 10, 14         entry C          line   221 file /cbio/jclab/home/chayas/anaconda/envs/py35/share/psi4/basis/aug-cc-pvtz.gbs 


         ---------------------------------------------------------
                                   SCF
            by Justin Turney, Rob Parrish, and Andy Simmonett
                              RHF Reference
                        1 Threads,    953 MiB Core
         ---------------------------------------------------------

  ==> Geometry <==

    Molecular point group: c1
    Full point group: C1

    Geometry (in Angstrom), charge = 0, multiplicity = 1:

       Center              X                  Y                   Z               Mass       
    ------------   -----------------  -----------------  -----------------  -----------------
           H         -2.330856343142     0.058670815860     0.318938774864     1.007825032070
           H         -2.187591138994     1.698480819410    -0.306486849188     1.007825032070
           H         -1.888022819590     0.324213795411    -1.365456758831     1.007825032070
           C         -1.777838261028     0.697751442259    -0.356329779284    12.000000000000
           H          0.250653439597     1.347863847197    -0.645597011674     1.007825032070
           H         -0.192010250389     1.083380833567     1.043375135777     1.007825032070
           C         -0.295298456450     0.705294761313     0.033752952204    12.000000000000
           H         -0.252926421190    -1.347924892792     0.642686272966     1.007825032070
           H          0.190165920768    -1.080192845271    -1.044601129774     1.007825032070
           C          0.293889462624    -0.704332851541    -0.034620712938    12.000000000000
           H          2.266086264201     0.171473118039    -0.062623984062     1.007825032070
           H          2.272154788552    -1.587416505044    -0.013446445426     1.007825032070
           H          1.876739295177    -0.671837010398     1.433955487587     1.007825032070
           C          1.778878329163    -0.698437205955     0.357135097510    12.000000000000

  Running in c1 symmetry.

  Rotational constants: A =      0.77675  B =      0.12348  C =      0.11571 [cm^-1]
  Rotational constants: A =  23286.35747  B =   3701.95089  C =   3468.94828 [MHz]
  Nuclear repulsion =  131.414514725832788

  Charge       = 0
  Multiplicity = 1
  Electrons    = 34
  Nalpha       = 17
  Nbeta        = 17

  ==> Algorithm <==

  SCF Algorithm Type is DF.
  DIIS enabled.
  MOM disabled.
  Fractional occupation disabled.
  Guess Type is READ.
  Energy threshold   = 1.00e-10
  Density threshold  = 1.00e-10
  Integral threshold = 0.00e+00

  ==> Primary Basis <==

  Basis Set: AUG-CC-PVTZ
    Blend: AUG-CC-PVTZ
    Number of shells: 146
    Number of basis function: 414
    Number of Cartesian functions: 470
    Spherical Harmonics?: true
    Max angular momentum: 3

   => Loading Basis Set <=

    Name: (AUG-CC-PVTZ AUX)
    Role: JKFIT
    Keyword: DF_BASIS_SCF
    atoms 1-3, 5-6, 8-9, 11-13 entry H          line    69 file /cbio/jclab/home/chayas/anaconda/envs/py35/share/psi4/basis/aug-cc-pvtz-jkfit.gbs 
    atoms 4, 7, 10, 14         entry C          line   161 file /cbio/jclab/home/chayas/anaconda/envs/py35/share/psi4/basis/aug-cc-pvtz-jkfit.gbs 

  Reading orbitals from file 180, no projection.

  ==> Pre-Iterations <==

   -------------------------------------------------------
    Irrep   Nso     Nmo     Nalpha   Nbeta   Ndocc  Nsocc
   -------------------------------------------------------
     A        414     414       0       0       0       0
   -------------------------------------------------------
    Total     414     414      17      17      17       0
   -------------------------------------------------------

  ==> Integral Setup <==

  ==> DFJK: Density-Fitted J/K Matrices <==

    J tasked:                  Yes
    K tasked:                  Yes
    wK tasked:                  No
    OpenMP threads:              1
    Integrals threads:           1
    Memory (MB):               715
    Algorithm:                Core
    Integral Cache:           NONE
    Schwarz Cutoff:          1E-12
    Fitting Condition:       1E-12

   => Auxiliary Basis Set <=

  Basis Set: (AUG-CC-PVTZ AUX)
    Blend: AUG-CC-PVTZ-JKFIT
    Number of shells: 260
    Number of basis function: 876
    Number of Cartesian functions: 1074
    Spherical Harmonics?: true
    Max angular momentum: 4

  Minimum eigenvalue in the overlap matrix is 8.7138430784E-06.
  Using Symmetric Orthogonalization.

  SCF Guess: Orbitals guess was supplied from a previous computation.

  ==> Iterations <==

                           Total Energy        Delta E     RMS |[F,P]|

   @DF-RHF iter   0:  -157.27693485660819   -1.57277e+02   1.24189e-04 
   @DF-RHF iter   1:  -157.35377527951783   -7.68404e-02   5.17061e-05 
   @DF-RHF iter   2:  -157.35404801183327   -2.72732e-04   2.67538e-05 DIIS
   @DF-RHF iter   3:  -157.35410603857787   -5.80267e-05   2.88272e-06 DIIS
   @DF-RHF iter   4:  -157.35410751228167   -1.47370e-06   7.76884e-07 DIIS
   @DF-RHF iter   5:  -157.35410760239864   -9.01170e-08   2.59594e-07 DIIS
   @DF-RHF iter   6:  -157.35410761271839   -1.03198e-08   4.30217e-08 DIIS
   @DF-RHF iter   7:  -157.35410761313531   -4.16918e-10   6.26179e-09 DIIS
   @DF-RHF iter   8:  -157.35410761314370   -8.38440e-12   1.10956e-09 DIIS
   @DF-RHF iter   9:  -157.35410761314353    1.70530e-13   2.63560e-10 DIIS
   @DF-RHF iter  10:  -157.35410761314546   -1.93268e-12   6.04479e-11 DIIS

  ==> Post-Iterations <==

    Orbital Energies (a.u.)
    -----------------------

    Doubly Occupied:                                                      

       1A    -11.210341     2A    -11.209669     3A    -11.203741  
       4A    -11.203535     5A     -1.071072     6A     -0.979680  
       7A     -0.860126     8A     -0.789314     9A     -0.645042  
      10A     -0.584704    11A     -0.572357    12A     -0.572117  
      13A     -0.512347    14A     -0.500189    15A     -0.469707  
      16A     -0.465231    17A     -0.449026  

    Virtual:                                                              

      18A      0.032287    19A      0.037083    20A      0.039592  
      21A      0.040800    22A      0.057007    23A      0.058484  
      24A      0.059727    25A      0.061241    26A      0.081784  
      27A      0.083251    28A      0.098517    29A      0.112392  
      30A      0.123044    31A      0.130790    32A      0.136021  
      33A      0.141695    34A      0.143264    35A      0.146322  
      36A      0.148287    37A      0.159798    38A      0.161312  
      39A      0.167595    40A      0.170930    41A      0.202053  
      42A      0.209217    43A      0.211638    44A      0.229023  
      45A      0.246051    46A      0.248728    47A      0.251125  
      48A      0.268364    49A      0.274662    50A      0.281764  
      51A      0.283509    52A      0.315634    53A      0.318152  
      54A      0.330440    55A      0.336010    56A      0.341910  
      57A      0.350001    58A      0.357238    59A      0.357322  
      60A      0.361304    61A      0.373213    62A      0.373884  
      63A      0.383022    64A      0.386433    65A      0.389621  
      66A      0.391466    67A      0.396320    68A      0.401763  
      69A      0.405194    70A      0.412827    71A      0.421955  
      72A      0.428563    73A      0.441509    74A      0.446673  
      75A      0.452975    76A      0.459567    77A      0.462219  
      78A      0.463905    79A      0.472683    80A      0.479292  
      81A      0.485999    82A      0.492513    83A      0.499304  
      84A      0.503031    85A      0.507020    86A      0.512069  
      87A      0.519955    88A      0.532655    89A      0.533928  
      90A      0.536978    91A      0.546073    92A      0.560787  
      93A      0.567051    94A      0.572039    95A      0.586595  
      96A      0.591412    97A      0.602166    98A      0.610039  
      99A      0.621952   100A      0.629964   101A      0.638922  
     102A      0.659964   103A      0.678281   104A      0.683269  
     105A      0.701227   106A      0.709316   107A      0.762580  
     108A      0.779067   109A      0.796627   110A      0.813305  
     111A      0.822126   112A      0.827531   113A      0.834908  
     114A      0.843230   115A      0.848333   116A      0.858914  
     117A      0.864060   118A      0.866737   119A      0.884068  
     120A      0.890713   121A      0.894986   122A      0.900945  
     123A      0.904738   124A      0.919476   125A      0.924053  
     126A      0.929856   127A      0.935616   128A      0.941421  
     129A      0.942257   130A      0.957738   131A      0.964244  
     132A      0.970687   133A      0.977050   134A      0.985282  
     135A      0.993777   136A      1.013809   137A      1.018324  
     138A      1.033879   139A      1.047863   140A      1.064330  
     141A      1.071641   142A      1.078629   143A      1.091615  
     144A      1.108162   145A      1.110846   146A      1.121610  
     147A      1.128456   148A      1.130982   149A      1.140833  
     150A      1.155557   151A      1.160526   152A      1.162834  
     153A      1.173663   154A      1.190224   155A      1.196933  
     156A      1.217549   157A      1.220799   158A      1.229757  
     159A      1.243717   160A      1.252732   161A      1.257955  
     162A      1.261320   163A      1.270607   164A      1.277154  
     165A      1.291771   166A      1.299291   167A      1.315905  
     168A      1.323049   169A      1.338748   170A      1.349633  
     171A      1.357280   172A      1.384788   173A      1.397391  
     174A      1.419512   175A      1.427722   176A      1.438112  
     177A      1.458109   178A      1.480076   179A      1.497099  
     180A      1.503584   181A      1.517817   182A      1.524447  
     183A      1.550896   184A      1.558063   185A      1.561530  
     186A      1.587233   187A      1.591427   188A      1.614403  
     189A      1.627293   190A      1.639500   191A      1.645396  
     192A      1.649388   193A      1.673625   194A      1.690486  
     195A      1.692084   196A      1.699774   197A      1.709090  
     198A      1.717271   199A      1.731260   200A      1.740051  
     201A      1.745995   202A      1.758699   203A      1.765446  
     204A      1.773498   205A      1.782584   206A      1.792353  
     207A      1.794242   208A      1.805030   209A      1.818339  
     210A      1.843139   211A      1.862490   212A      1.866743  
     213A      1.885144   214A      1.900175   215A      1.912075  
     216A      1.922334   217A      1.953389   218A      1.970069  
     219A      1.977962   220A      1.987956   221A      1.992605  
     222A      2.003404   223A      2.028776   224A      2.035524  
     225A      2.041138   226A      2.061841   227A      2.088069  
     228A      2.098410   229A      2.118537   230A      2.141128  
     231A      2.156124   232A      2.183717   233A      2.192235  
     234A      2.208880   235A      2.237496   236A      2.249114  
     237A      2.258966   238A      2.273739   239A      2.294843  
     240A      2.299853   241A      2.325998   242A      2.328230  
     243A      2.339564   244A      2.346056   245A      2.363026  
     246A      2.371379   247A      2.420738   248A      2.441203  
     249A      2.467777   250A      2.478958   251A      2.508249  
     252A      2.543800   253A      2.603761   254A      2.618578  
     255A      2.640382   256A      2.661638   257A      2.729214  
     258A      2.897777   259A      2.933901   260A      3.026921  
     261A      3.239982   262A      3.245435   263A      3.293343  
     264A      3.379711   265A      3.396362   266A      3.425831  
     267A      3.451740   268A      3.458732   269A      3.466085  
     270A      3.484760   271A      3.521350   272A      3.542565  
     273A      3.570904   274A      3.578510   275A      3.599946  
     276A      3.607311   277A      3.635897   278A      3.658477  
     279A      3.679486   280A      3.686248   281A      3.712879  
     282A      3.722622   283A      3.731124   284A      3.743529  
     285A      3.753167   286A      3.767681   287A      3.779552  
     288A      3.797413   289A      3.809585   290A      3.820755  
     291A      3.847939   292A      3.858003   293A      3.875880  
     294A      3.882895   295A      3.911462   296A      3.921619  
     297A      3.940212   298A      3.948493   299A      3.970887  
     300A      3.987728   301A      3.997537   302A      4.006187  
     303A      4.013655   304A      4.013964   305A      4.044360  
     306A      4.050583   307A      4.062156   308A      4.077378  
     309A      4.123332   310A      4.177934   311A      4.191563  
     312A      4.206315   313A      4.221018   314A      4.226357  
     315A      4.237338   316A      4.264531   317A      4.265393  
     318A      4.280182   319A      4.299002   320A      4.320470  
     321A      4.330857   322A      4.364728   323A      4.369390  
     324A      4.399437   325A      4.416991   326A      4.422146  
     327A      4.514259   328A      4.531778   329A      4.565989  
     330A      4.575017   331A      4.617943   332A      4.649712  
     333A      4.665451   334A      4.681843   335A      4.705170  
     336A      4.718912   337A      4.724532   338A      4.735992  
     339A      4.763587   340A      4.776754   341A      4.787560  
     342A      4.837144   343A      4.853188   344A      4.868082  
     345A      4.873799   346A      4.899907   347A      4.927803  
     348A      4.939697   349A      4.952316   350A      4.998032  
     351A      5.027064   352A      5.046019   353A      5.063587  
     354A      5.079008   355A      5.107553   356A      5.153634  
     357A      5.161889   358A      5.179924   359A      5.188825  
     360A      5.227362   361A      5.229669   362A      5.248725  
     363A      5.251716   364A      5.288688   365A      5.296987  
     366A      5.326602   367A      5.371710   368A      5.386535  
     369A      5.415317   370A      5.431280   371A      5.435085  
     372A      5.453664   373A      5.470476   374A      5.489441  
     375A      5.553935   376A      5.569689   377A      5.600699  
     378A      5.614262   379A      5.652937   380A      5.655767  
     381A      5.694543   382A      5.733056   383A      5.738413  
     384A      5.751216   385A      5.812293   386A      5.815025  
     387A      5.870563   388A      5.881903   389A      5.923084  
     390A      5.996274   391A      6.064626   392A      6.127109  
     393A      6.136736   394A      6.160843   395A      6.204719  
     396A      6.225022   397A      6.232252   398A      6.270530  
     399A      6.279389   400A      6.324453   401A      6.367827  
     402A      6.404662   403A      6.550123   404A      6.561329  
     405A      6.735870   406A      6.778932   407A      6.827492  
     408A      6.843512   409A      6.854478   410A      6.987099  
     411A     17.974471   412A     18.187608   413A     18.503904  
     414A     18.845018  

    Final Occupation by Irrep:
              A 
    DOCC [    17 ]

  Energy converged.

  @DF-RHF Final Energy:  -157.35410761314546

   => Energetics <=

    Nuclear Repulsion Energy =            131.4145147258327881
    One-Electron Energy =                -470.9408498029692964
    Two-Electron Energy =                 182.1722274639910779
    DFT Exchange-Correlation Energy =       0.0000000000000000
    Empirical Dispersion Energy =           0.0000000000000000
    PCM Polarization Energy =               0.0000000000000000
    EFP Energy =                            0.0000000000000000
    Total Energy =                       -157.3541076131454588



Properties will be evaluated at   0.000000,   0.000000,   0.000000 Bohr

Properties computed using the SCF density matrix

  Nuclear Dipole Moment: (a.u.)
     X:     0.0041      Y:    -0.0031      Z:     0.0007

  Electronic Dipole Moment: (a.u.)
     X:    -0.0046      Y:     0.0027      Z:     0.0005

  Dipole Moment: (a.u.)
     X:    -0.0005      Y:    -0.0004      Z:     0.0012     Total:     0.0014

  Dipole Moment: (Debye)
     X:    -0.0013      Y:    -0.0010      Z:     0.0032     Total:     0.0036


*** tstop() called on gpu-1-16.local at Wed Jun 14 15:02:02 2017
Module time:
	user time   =      69.91 seconds =       1.17 minutes
	system time =       0.47 seconds =       0.01 minutes
	total time  =         71 seconds =       1.18 minutes
Total time:
	user time   =     444.77 seconds =       7.41 minutes
	system time =       4.30 seconds =       0.07 minutes
	total time  =        450 seconds =       7.50 minutes

  //>>>>>>>>>>>>>>>>>>>>>>>>>>>>>>>>>>>//
  //               DFMP2               //
  //<<<<<<<<<<<<<<<<<<<<<<<<<<<<<<<<<<<//

   => Loading Basis Set <=

    Name: (AUG-CC-PVTZ AUX)
    Role: RIFIT
    Keyword: DF_BASIS_MP2
    atoms 1-3, 5-6, 8-9, 11-13 entry H          line    29 file /cbio/jclab/home/chayas/anaconda/envs/py35/share/psi4/basis/aug-cc-pvtz-ri.gbs 
    atoms 4, 7, 10, 14         entry C          line   147 file /cbio/jclab/home/chayas/anaconda/envs/py35/share/psi4/basis/aug-cc-pvtz-ri.gbs 

	 --------------------------------------------------------
	                          DF-MP2                         
	      2nd-Order Density-Fitted Moller-Plesset Theory     
	              RMP2 Wavefunction,   1 Threads             
	                                                         
	        Rob Parrish, Justin Turney, Andy Simmonett,      
	           Ed Hohenstein, and C. David Sherrill          
	 --------------------------------------------------------

   => Auxiliary Basis Set <=

  Basis Set: (AUG-CC-PVTZ AUX)
    Blend: AUG-CC-PVTZ-RI
    Number of shells: 252
    Number of basis function: 884
    Number of Cartesian functions: 1094
    Spherical Harmonics?: true
    Max angular momentum: 4

	 --------------------------------------------------------
	                 NBF =   414, NAUX =   884
	 --------------------------------------------------------
	   CLASS    FOCC     OCC    AOCC    AVIR     VIR    FVIR
	   PAIRS       0      17      17     397     397       0
	 --------------------------------------------------------


         ------------------------------------------------------------
                                     CPHF                           
                                  Rob Parrish                       
         ------------------------------------------------------------

  ==> Geometry <==

    Molecular point group: c1
    Full point group: C1

    Geometry (in Angstrom), charge = 0, multiplicity = 1:

       Center              X                  Y                   Z               Mass       
    ------------   -----------------  -----------------  -----------------  -----------------
           H         -2.330856343142     0.058670815860     0.318938774864     1.007825032070
           H         -2.187591138994     1.698480819410    -0.306486849188     1.007825032070
           H         -1.888022819590     0.324213795411    -1.365456758831     1.007825032070
           C         -1.777838261028     0.697751442259    -0.356329779284    12.000000000000
           H          0.250653439597     1.347863847197    -0.645597011674     1.007825032070
           H         -0.192010250389     1.083380833567     1.043375135777     1.007825032070
           C         -0.295298456450     0.705294761313     0.033752952204    12.000000000000
           H         -0.252926421190    -1.347924892792     0.642686272966     1.007825032070
           H          0.190165920768    -1.080192845271    -1.044601129774     1.007825032070
           C          0.293889462624    -0.704332851541    -0.034620712938    12.000000000000
           H          2.266086264201     0.171473118039    -0.062623984062     1.007825032070
           H          2.272154788552    -1.587416505044    -0.013446445426     1.007825032070
           H          1.876739295177    -0.671837010398     1.433955487587     1.007825032070
           C          1.778878329163    -0.698437205955     0.357135097510    12.000000000000

  Nuclear repulsion =  131.414514725832788
  Reference energy  = -157.354107613145459

  ==> Basis Set <==

  Basis Set: AUG-CC-PVTZ
    Blend: AUG-CC-PVTZ
    Number of shells: 146
    Number of basis function: 414
    Number of Cartesian functions: 470
    Spherical Harmonics?: true
    Max angular momentum: 3

  ==> CGRSolver (by Rob Parrish) <==

   Number of roots    =         1
   Preconditioning    =    JACOBI
   Convergence cutoff =     1E-06
   Maximum iterations =       100

  ==> CPHFRHamiltonian (by Rob Parrish) <== 

  ==> DFJK: Density-Fitted J/K Matrices <==

    J tasked:                  Yes
    K tasked:                  Yes
    wK tasked:                  No
    OpenMP threads:              1
    Integrals threads:           1
    Memory (MB):               715
    Algorithm:                Core
    Integral Cache:           NONE
    Schwarz Cutoff:          1E-12
    Fitting Condition:       1E-12

   => Auxiliary Basis Set <=

  Basis Set: (AUG-CC-PVTZ AUX)
    Blend: AUG-CC-PVTZ-JKFIT
    Number of shells: 260
    Number of basis function: 876
    Number of Cartesian functions: 1074
    Spherical Harmonics?: true
    Max angular momentum: 4

  ==> CPHF Iterations <==

  => Iterations <=

             Iter  Converged  Remaining    Residual
  CGR           1          0          1   8.304E-02
  CGR           2          0          1   1.324E-02
  CGR           3          0          1   3.489E-03
  CGR           4          0          1   8.146E-04
  CGR           5          0          1   1.201E-04
  CGR           6          0          1   2.187E-05
  CGR           7          0          1   3.809E-06
  CGR           8          1          0   8.517E-07

    CGRSolver converged.

  ==> DFCorrGrad: Density-Fitted Correlated Gradients <==

    OpenMP threads:              1
    Integrals threads:           1
    Memory (MB):               715
    Schwarz Cutoff:          0E+00
    Fitting Condition:       1E-12

   => Auxiliary Basis Set <=

  Basis Set: (AUG-CC-PVTZ AUX)
    Blend: AUG-CC-PVTZ-JKFIT
    Number of shells: 260
    Number of basis function: 876
    Number of Cartesian functions: 1074
    Spherical Harmonics?: true
    Max angular momentum: 4

	-----------------------------------------------------------
	 ==================> DF-MP2 Energies <==================== 
	-----------------------------------------------------------
	 Reference Energy          =    -157.3541076131454588 [Eh]
	 Singles Energy            =      -0.0000000000000000 [Eh]
	 Same-Spin Energy          =      -0.1653434204521865 [Eh]
	 Opposite-Spin Energy      =      -0.6392925382118001 [Eh]
	 Correlation Energy        =      -0.8046359586639866 [Eh]
	 Total Energy              =    -158.1587435718094525 [Eh]
	-----------------------------------------------------------
	 ================> DF-SCS-MP2 Energies <================== 
	-----------------------------------------------------------
	 SCS Same-Spin Scale       =       0.3333333333333333 [-]
	 SCS Opposite-Spin Scale   =       1.2000000000000000 [-]
	 SCS Same-Spin Energy      =      -0.0551144734840622 [Eh]
	 SCS Opposite-Spin Energy  =      -0.7671510458541601 [Eh]
	 SCS Correlation Energy    =      -0.8222655193382222 [Eh]
	 SCS Total Energy          =    -158.1763731324836897 [Eh]
	-----------------------------------------------------------


  -Total Gradient:
     Atom            X                  Y                   Z
    ------   -----------------  -----------------  -----------------
       1        0.003467144143     0.002122063494    -0.001278224307
       2        0.003304012659    -0.002204998258     0.000500043373
       3        0.002173330601     0.001491813288     0.003417103779
       4       -0.013550632151    -0.003712190098    -0.004445734547
       5       -0.003336679215    -0.003726053703     0.000464706680
       6       -0.002554147052    -0.003597045914    -0.003128393091
       7        0.013123445151     0.015908573127     0.004797788054
       8        0.003454144768     0.004509089001     0.000262191307
       9        0.002566671859     0.002676995217     0.003342916243
      10       -0.012543118411    -0.015931435419    -0.004860179519
      11       -0.003365169098    -0.002242707393     0.001199314954
      12       -0.003395159303     0.002494637773    -0.000564934313
      13       -0.002335811415    -0.001587534312    -0.003362662545
      14        0.012991967467     0.003798793196     0.003656063934


*** tstop() called on gpu-1-16.local at Wed Jun 14 15:07:23 2017
Module time:
	user time   =     387.65 seconds =       6.46 minutes
	system time =       3.36 seconds =       0.06 minutes
	total time  =        392 seconds =       6.53 minutes
Total time:
	user time   =     762.51 seconds =      12.71 minutes
	system time =       7.19 seconds =       0.12 minutes
	total time  =        771 seconds =      12.85 minutes

			-----------------------------------------
			 OPTKING 2.0: for geometry optimizations 
			  - R.A. King,  Bethel University        
			-----------------------------------------

	Previous internal coordinate definitions found.
	---Fragment 1 Geometry and Gradient---
	 H          -4.4046801436        0.1108717740        0.6027069377
	 H          -4.1339481434        3.2096635906       -0.5791762083
	 H          -3.5678460617        0.6126752818       -2.5803393205
	 C          -3.3596274219        1.3185591347       -0.6733656958
	 H           0.4736663551        2.5470935356       -1.2200015443
	 H          -0.3628467879        2.0472930731        1.9716932605
	 C          -0.5580332102        1.3328139418        0.0637838358
	 H          -0.4779616678       -2.5472088951        1.2145010453
	 H           0.3593615101       -2.0412686483       -1.9740100534
	 C           0.5553705977       -1.3309961958       -0.0654236660
	 H           4.2822824328        0.3240372322       -0.1183421792
	 H           4.2937502819       -2.9997824534       -0.0254100993
	 H           3.5465232907       -1.2695879556        2.7097831583
	 C           3.3615928658       -1.3198550403        0.6748875267
	             0.0034671441        0.0021220635       -0.0012782243
	             0.0033040127       -0.0022049983        0.0005000434
	             0.0021733306        0.0014918133        0.0034171038
	            -0.0135506322       -0.0037121901       -0.0044457345
	            -0.0033366792       -0.0037260537        0.0004647067
	            -0.0025541471       -0.0035970459       -0.0031283931
	             0.0131234452        0.0159085731        0.0047977881
	             0.0034541448        0.0045090890        0.0002621913
	             0.0025666719        0.0026769952        0.0033429162
	            -0.0125431184       -0.0159314354       -0.0048601795
	            -0.0033651691       -0.0022427074        0.0011993150
	            -0.0033951593        0.0024946378       -0.0005649343
	            -0.0023358114       -0.0015875343       -0.0033626625
	             0.0129919675        0.0037987932        0.0036560639

	---Fragment 1 Intrafragment Coordinates---
	 - Coordinate -           - BOHR/RAD -       - ANG/DEG -
	 R(1,4)           =         2.044262	       1.081777
	 R(2,4)           =         2.045659	       1.082516
	 R(3,4)           =         2.044059	       1.081669
	 R(4,7)           =         2.896985	       1.533018
	 R(5,7)           =         2.046212	       1.082809
	 R(6,7)           =         2.046631	       1.083030
	 R(7,10)          =         2.890025	       1.529336
	 R(8,10)          =         2.045765	       1.082572
	 R(9,10)          =         2.045876	       1.082631
	 R(10,14)         =         2.902252	       1.535806
	 R(11,14)         =         2.044325	       1.081810
	 R(12,14)         =         2.044869	       1.082098
	 R(13,14)         =         2.043900	       1.081585
	 B(1,4,2)         =         1.900635	     108.898356
	 B(1,4,3)         =         1.903152	     109.042560
	 B(1,4,7)         =         1.916067	     109.782526
	 B(2,4,3)         =         1.900372	     108.883281
	 B(2,4,7)         =         1.928144	     110.474499
	 B(3,4,7)         =         1.915162	     109.730684
	 B(4,7,5)         =         1.908026	     109.321842
	 B(4,7,6)         =         1.908323	     109.338845
	 B(4,7,10)        =         1.935487	     110.895232
	 B(5,7,6)         =         1.906697	     109.245701
	 B(5,7,10)        =         1.901471	     108.946272
	 B(6,7,10)        =         1.903617	     109.069234
	 B(7,10,8)        =         1.902231	     108.989818
	 B(7,10,9)        =         1.901592	     108.953192
	 B(7,10,14)       =         1.936458	     110.950882
	 B(8,10,9)        =         1.905907	     109.200425
	 B(8,10,14)       =         1.908251	     109.334720
	 B(9,10,14)       =         1.909149	     109.386192
	 B(10,14,11)      =         1.917259	     109.850873
	 B(10,14,12)      =         1.928643	     110.503106
	 B(10,14,13)      =         1.919349	     109.970588
	 B(11,14,12)      =         1.899096	     108.810179
	 B(11,14,13)      =         1.902634	     109.012908
	 B(12,14,13)      =         1.896438	     108.657873
	 D(1,4,7,5)       =        -3.140218	    -179.921220
	 D(1,4,7,6)       =        -1.053618	     -60.367852
	 D(1,4,7,10)      =         1.046103	      59.937268
	 D(2,4,7,5)       =        -1.043847	     -59.808047
	 D(2,4,7,6)       =         1.042753	      59.745320
	 D(2,4,7,10)      =        -3.140712	    -179.949559
	 D(3,4,7,5)       =         1.051618	      60.253271
	 D(3,4,7,6)       =         3.138218	     179.806638
	 D(3,4,7,10)      =        -1.045247	     -59.888241
	 D(4,7,10,8)      =        -1.038594	     -59.507065
	 D(4,7,10,9)      =         1.039616	      59.565588
	 D(4,7,10,14)     =        -3.140732	    -179.950680
	 D(5,7,10,8)      =        -3.139358	    -179.871983
	 D(5,7,10,9)      =        -1.061148	     -60.799330
	 D(5,7,10,14)     =         1.041689	      59.684402
	 D(6,7,10,8)      =         1.063922	      60.958216
	 D(6,7,10,9)      =        -3.141054	    -179.969132
	 D(6,7,10,14)     =        -1.038216	     -59.485399
	 D(7,10,14,11)    =        -0.700149	     -40.115610
	 D(7,10,14,12)    =        -2.795690	    -160.181242
	 D(7,10,14,13)    =         1.393916	      79.865521
	 D(8,10,14,11)    =        -2.798713	    -160.354459
	 D(8,10,14,12)    =         1.388931	      79.579908
	 D(8,10,14,13)    =        -0.704648	     -40.373329
	 D(9,10,14,11)    =         1.398202	      80.111090
	 D(9,10,14,12)    =        -0.697338	     -39.954543
	 D(9,10,14,13)    =        -2.790917	    -159.907780

	Current energy   :      -158.1587435718

	Energy change for the previous step:
		Projected    :        -0.0045271639
		Actual       :        -0.0030382658

	Performing BFGS update.
	Previous computed or guess Hessian on step 1.
	Steps to be used in Hessian update: 1
	Adding user-defined constraint: Fragment 1; Coordinate 58:
		Value =     1.393916; Fixed value    =     1.396260
		Force =     0.001230; Force constant =     0.525000
	Removing off-diagonal coupling between coordinate 58 and others.
	Taking RFO optimization step.
	Going to follow RFO solution 1.
	Using RFO vector 1.

	Determining step-restricting scale parameter for RS-RFO.
	Maximum step size allowed    0.10000

	 Iter      |step|        alpha        rfo_root  
	------------------------------------------------
	    0     0.17492       1.00000           1
	    1     0.14253       4.68285           1
	    2     0.11636      13.51619           1
	    3     0.10342      21.83527           1
	    4     0.10020      24.58019           1
	    5     0.10000      24.76122           1
	------------------------------------------------
	Norm of target step-size    0.10000
	Projected energy change by RFO approximation:        -0.0014211942

	Back-transformation to cartesian coordinates...
	Successfully converged to displaced geometry.

	--- Internal Coordinate Step in ANG or DEG, aJ/ANG or AJ/DEG ---
	 ---------------------------------------------------------------------------
	   Coordinate                Previous        Force       Change         New 
	   ----------                --------       ------       ------       ------
	    1 R(1,4)          =      1.081777     0.031505     0.005854     1.087631
	    2 R(2,4)          =      1.082516     0.026908     0.004778     1.087294
	    3 R(3,4)          =      1.081669     0.032333     0.006007     1.087676
	    4 R(4,7)          =      1.533018    -0.040580    -0.010917     1.522102
	    5 R(5,7)          =      1.082809     0.034479     0.006494     1.089303
	    6 R(6,7)          =      1.083030     0.036379     0.006826     1.089857
	    7 R(7,10)         =      1.529336    -0.039490    -0.009805     1.519531
	    8 R(8,10)         =      1.082572     0.035108     0.006579     1.089151
	    9 R(9,10)         =      1.082631     0.035376     0.006629     1.089260
	   10 R(10,14)        =      1.535806    -0.033062    -0.009394     1.526411
	   11 R(11,14)        =      1.081810     0.031178     0.005837     1.087647
	   12 R(12,14)        =      1.082098     0.028042     0.005006     1.087104
	   13 R(13,14)        =      1.081585     0.029645     0.005465     1.087050
	   14 B(1,4,2)        =    108.898356    -0.000157    -0.675460   108.222896
	   15 B(1,4,3)        =    109.042560    -0.000153    -0.811417   108.231143
	   16 B(1,4,7)        =    109.782526     0.000130     0.626240   110.408766
	   17 B(2,4,3)        =    108.883281    -0.000151    -0.651960   108.231321
	   18 B(2,4,7)        =    110.474499     0.000203     0.860345   111.334844
	   19 B(3,4,7)        =    109.730684     0.000118     0.584960   110.315644
	   20 B(4,7,5)        =    109.321842    -0.000016     0.173763   109.495606
	   21 B(4,7,6)        =    109.338845    -0.000033     0.101885   109.440730
	   22 B(4,7,10)       =    110.895232     0.000267     1.097629   111.992862
	   23 B(5,7,6)        =    109.245701    -0.000078    -1.142419   108.103282
	   24 B(5,7,10)       =    108.946272    -0.000083    -0.209742   108.736530
	   25 B(6,7,10)       =    109.069234    -0.000061    -0.080821   108.988414
	   26 B(7,10,8)       =    108.989818    -0.000068    -0.032151   108.957667
	   27 B(7,10,9)       =    108.953192    -0.000091    -0.317132   108.636060
	   28 B(7,10,14)      =    110.950882     0.000275     1.124715   112.075596
	   29 B(8,10,9)       =    109.200425    -0.000083    -1.177661   108.022764
	   30 B(8,10,14)      =    109.334720    -0.000027     0.167751   109.502471
	   31 B(9,10,14)      =    109.386192    -0.000011     0.169245   109.555437
	   32 B(10,14,11)     =    109.850873     0.000126     0.657628   110.508501
	   33 B(10,14,12)     =    110.503106     0.000196     0.746417   111.249523
	   34 B(10,14,13)     =    109.970588     0.000147     0.680892   110.651479
	   35 B(11,14,12)     =    108.810179    -0.000155    -0.661701   108.148478
	   36 B(11,14,13)     =    109.012908    -0.000140    -0.582509   108.430399
	   37 B(12,14,13)     =    108.657873    -0.000185    -0.914227   107.743646
	   38 D(1,4,7,5)      =   -179.921220     0.000010     0.483286  -179.437934
	   39 D(1,4,7,6)      =    -60.367852    -0.000019    -0.742204   -61.110056
	   40 D(1,4,7,10)     =     59.937268    -0.000002    -0.071189    59.866079
	   41 D(2,4,7,5)      =    -59.808047     0.000014     0.604042   -59.204005
	   42 D(2,4,7,6)      =     59.745320    -0.000015    -0.621447    59.123873
	   43 D(2,4,7,10)     =   -179.949559     0.000001     0.049567  -179.899992
	   44 D(3,4,7,5)      =     60.253271     0.000018     0.725046    60.978317
	   45 D(3,4,7,6)      =    179.806638    -0.000011    -0.500443   179.306195
	   46 D(3,4,7,10)     =    -59.888241     0.000005     0.170571   -59.717670
[...]
  CGR           2          0          1   1.343E-02
  CGR           3          0          1   3.544E-03
  CGR           4          0          1   8.166E-04
  CGR           5          0          1   1.199E-04
  CGR           6          0          1   2.230E-05
  CGR           7          0          1   3.944E-06
  CGR           8          1          0   9.034E-07

    CGRSolver converged.

  ==> DFCorrGrad: Density-Fitted Correlated Gradients <==

    OpenMP threads:              1
    Integrals threads:           1
    Memory (MB):               715
    Schwarz Cutoff:          0E+00
    Fitting Condition:       1E-12

   => Auxiliary Basis Set <=

  Basis Set: (AUG-CC-PVTZ AUX)
    Blend: AUG-CC-PVTZ-JKFIT
    Number of shells: 260
    Number of basis function: 876
    Number of Cartesian functions: 1074
    Spherical Harmonics?: true
    Max angular momentum: 4

	-----------------------------------------------------------
	 ==================> DF-MP2 Energies <==================== 
	-----------------------------------------------------------
	 Reference Energy          =    -157.3552336776909897 [Eh]
	 Singles Energy            =      -0.0000000000000002 [Eh]
	 Same-Spin Energy          =      -0.1654436844221190 [Eh]
	 Opposite-Spin Energy      =      -0.6393219502247038 [Eh]
	 Correlation Energy        =      -0.8047656346468229 [Eh]
	 Total Energy              =    -158.1599993123378169 [Eh]
	-----------------------------------------------------------
	 ================> DF-SCS-MP2 Energies <================== 
	-----------------------------------------------------------
	 SCS Same-Spin Scale       =       0.3333333333333333 [-]
	 SCS Opposite-Spin Scale   =       1.2000000000000000 [-]
	 SCS Same-Spin Energy      =      -0.0551478948073730 [Eh]
	 SCS Opposite-Spin Energy  =      -0.7671863402696446 [Eh]
	 SCS Correlation Energy    =      -0.8223342350770178 [Eh]
	 SCS Total Energy          =    -158.1775679127680121 [Eh]
	-----------------------------------------------------------


  -Total Gradient:
     Atom            X                  Y                   Z
    ------   -----------------  -----------------  -----------------
       1        0.000002071392    -0.000003325917     0.000006592731
       2       -0.000015842144     0.000007284228    -0.000004397193
       3       -0.000009448464    -0.000002269271    -0.000003505207
       4        0.000014897822     0.000015576197    -0.000019835011
       5       -0.000012774243     0.000000617577     0.000007088332
       6        0.000005504702    -0.000007679916     0.000007053607
       7        0.000532645592     0.000335093032    -0.001935226614
       8       -0.000011676440    -0.000005290001     0.000012667517
       9        0.000000885050     0.000000120931     0.000018330189
      10       -0.000734442798    -0.001181958414     0.002686073563
      11        0.000016794592     0.000010000204    -0.000000676996
      12        0.000007914823     0.000007070091     0.000003590437
      13       -0.000027937499    -0.002806859279     0.000050908238
      14        0.000231407615     0.003631620538    -0.000828663592


*** tstop() called on gpu-1-16.local at Wed Jun 14 15:32:11 2017
Module time:
	user time   =     302.56 seconds =       5.04 minutes
	system time =       3.93 seconds =       0.07 minutes
	total time  =        306 seconds =       5.10 minutes
Total time:
	user time   =    2234.58 seconds =      37.24 minutes
	system time =      21.95 seconds =       0.37 minutes
	total time  =       2259 seconds =      37.65 minutes

			-----------------------------------------
			 OPTKING 2.0: for geometry optimizations 
			  - R.A. King,  Bethel University        
			-----------------------------------------

	Previous internal coordinate definitions found.
	---Fragment 1 Geometry and Gradient---
	 H          -4.4335390445        0.1144721833        0.6408237034
	 H          -4.1698857303        3.1927535414       -0.5906325497
	 H          -3.6379735508        0.5608675387       -2.5533965617
	 C          -3.3650581797        1.3028702778       -0.6541364808
	 H           0.4498197305        2.5562297394       -1.2396044524
	 H          -0.3385974242        2.0857690882        1.9341402748
	 C          -0.5835091668        1.3116121942        0.0380317321
	 H          -0.4793202318       -2.5902893687        1.1261921277
	 H           0.4021906967       -2.0120609324       -2.0017416618
	 C           0.5896324637       -1.3014721477       -0.0752236815
	 H           4.3444626209        0.3176514450       -0.0890454680
	 H           4.3138077202       -3.0038720391        0.0285671917
	 H           3.5567354469       -1.2723237290        2.7377274824
	 C           3.3582881754       -1.3087436522        0.6919138013
	             0.0000020714       -0.0000033259        0.0000065927
	            -0.0000158421        0.0000072842       -0.0000043972
	            -0.0000094485       -0.0000022693       -0.0000035052
	             0.0000148978        0.0000155762       -0.0000198350
	            -0.0000127742        0.0000006176        0.0000070883
	             0.0000055047       -0.0000076799        0.0000070536
	             0.0005326456        0.0003350930       -0.0019352266
	            -0.0000116764       -0.0000052900        0.0000126675
	             0.0000008850        0.0000001209        0.0000183302
	            -0.0007344428       -0.0011819584        0.0026860736
	             0.0000167946        0.0000100002       -0.0000006770
	             0.0000079148        0.0000070701        0.0000035904
	            -0.0000279375       -0.0028068593        0.0000509082
	             0.0002314076        0.0036316205       -0.0008286636

	---Fragment 1 Intrafragment Coordinates---
	 - Coordinate -           - BOHR/RAD -       - ANG/DEG -
	 R(1,4)           =         2.056906	       1.088468
	 R(2,4)           =         2.055101	       1.087512
	 R(3,4)           =         2.057241	       1.088645
	 R(4,7)           =         2.866389	       1.516828
	 R(5,7)           =         2.061358	       1.090824
	 R(6,7)           =         2.062651	       1.091508
	 R(7,10)          =         2.866583	       1.516930
	 R(8,10)          =         2.060852	       1.090556
	 R(9,10)          =         2.061927	       1.091125
	 R(10,14)         =         2.872979	       1.520315
	 R(11,14)         =         2.056112	       1.088048
	 R(12,14)         =         2.055847	       1.087907
	 R(13,14)         =         2.055739	       1.087850
	 B(1,4,2)         =         1.884332	     107.964299
	 B(1,4,3)         =         1.879604	     107.693393
	 B(1,4,7)         =         1.932449	     110.721196
	 B(2,4,3)         =         1.884156	     107.954205
	 B(2,4,7)         =         1.949554	     111.701219
	 B(3,4,7)         =         1.931324	     110.656716
	 B(4,7,5)         =         1.916248	     109.792899
	 B(4,7,6)         =         1.915956	     109.776179
	 B(4,7,10)        =         1.965802	     112.632179
	 B(5,7,6)         =         1.858368	     106.476664
	 B(5,7,10)        =         1.897321	     108.708508
	 B(6,7,10)        =         1.906949	     109.260101
	 B(7,10,8)        =         1.912158	     109.558556
	 B(7,10,9)        =         1.890051	     108.291944
	 B(7,10,14)       =         1.967245	     112.714809
	 B(8,10,9)        =         1.856688	     106.380365
	 B(8,10,14)       =         1.920494	     110.036172
	 B(9,10,14)       =         1.913692	     109.646481
	 B(10,14,11)      =         1.937770	     111.026065
	 B(10,14,12)      =         1.943177	     111.335862
	 B(10,14,13)      =         1.937684	     111.021128
	 B(11,14,12)      =         1.882559	     107.862689
	 B(11,14,13)      =         1.894073	     108.522408
	 B(12,14,13)      =         1.865908	     106.908640
	 D(1,4,7,5)       =        -3.110688	    -178.229297
	 D(1,4,7,6)       =        -1.073438	     -61.503483
	 D(1,4,7,10)      =         1.055581	      60.480357
	 D(2,4,7,5)       =        -1.009978	     -57.867458
	 D(2,4,7,6)       =         1.027272	      58.858356
	 D(2,4,7,10)      =        -3.126894	    -179.157804
	 D(3,4,7,5)       =         1.089742	      62.437601
	 D(3,4,7,6)       =         3.126991	     179.163414
	 D(3,4,7,10)      =        -1.027174	     -58.852745
	 D(4,7,10,8)      =        -0.967716	     -55.446051
	 D(4,7,10,9)      =         1.050507	      60.189645
	 D(4,7,10,14)     =        -3.112381	    -178.326299
	 D(5,7,10,8)      =        -3.095377	    -177.352024
	 D(5,7,10,9)      =        -1.077153	     -61.716328
	 D(5,7,10,14)     =         1.043144	      59.767728
	 D(6,7,10,8)      =         1.166388	      66.829083
	 D(6,7,10,9)      =        -3.098574	    -177.535221
	 D(6,7,10,14)     =        -0.978277	     -56.051165
	 D(7,10,14,11)    =        -0.718260	     -41.153289
	 D(7,10,14,12)    =        -2.816053	    -161.347960
	 D(7,10,14,13)    =         1.390415	      79.664897
	 D(8,10,14,11)    =        -2.858260	    -163.766210
	 D(8,10,14,12)    =         1.327133	      76.039120
	 D(8,10,14,13)    =        -0.749584	     -42.948023
	 D(9,10,14,11)    =         1.388564	      79.558867
	 D(9,10,14,12)    =        -0.709229	     -40.635804
	 D(9,10,14,13)    =        -2.785946	    -159.622947

	Current energy   :      -158.1599993123

	Energy change for the previous step:
		Projected    :        -0.0000053827
		Actual       :         0.0000008308

	Performing BFGS update.
	Previous computed or guess Hessian on step 1.
	Steps to be used in Hessian update: 5 4
	Adding user-defined constraint: Fragment 1; Coordinate 58:
		Value =     1.390415; Fixed value    =     1.396260
		Force =     0.003653; Force constant =     0.625000
	Removing off-diagonal coupling between coordinate 58 and others.
	Taking RFO optimization step.
	Going to follow RFO solution 1.
	Using RFO vector 1.
	Norm of target step-size    0.01023
	Projected energy change by RFO approximation:         0.0000002359

	Back-transformation to cartesian coordinates...
	Successfully converged to displaced geometry.

	--- Internal Coordinate Step in ANG or DEG, aJ/ANG or AJ/DEG ---
	 ---------------------------------------------------------------------------
	   Coordinate                Previous        Force       Change         New 
	   ----------                --------       ------       ------       ------
	    1 R(1,4)          =      1.088468    -0.000041     0.000110     1.088578
	    2 R(2,4)          =      1.087512    -0.000105     0.000036     1.087549
	    3 R(3,4)          =      1.088645    -0.000044     0.000097     1.088742
	    4 R(4,7)          =      1.516828    -0.000108    -0.000087     1.516741
	    5 R(5,7)          =      1.090824     0.000086     0.000037     1.090861
	    6 R(6,7)          =      1.091508    -0.000035     0.000070     1.091578
	    7 R(7,10)         =      1.516930    -0.000218    -0.000109     1.516821
	    8 R(8,10)         =      1.090556    -0.000138     0.000108     1.090664
	    9 R(9,10)         =      1.091125     0.000142     0.000055     1.091180
	   10 R(10,14)        =      1.520315    -0.000089    -0.000056     1.520259
	   11 R(11,14)        =      1.088048    -0.000134     0.000092     1.088140
	   12 R(12,14)        =      1.087907     0.000027     0.000007     1.087914
	   13 R(13,14)        =      1.087850     0.000015     0.000083     1.087933
	   14 B(1,4,2)        =    107.964299     0.000000    -0.006428   107.957872
	   15 B(1,4,3)        =    107.693393     0.000000    -0.003116   107.690277
	   16 B(1,4,7)        =    110.721196     0.000001     0.019152   110.740348
	   17 B(2,4,3)        =    107.954205     0.000001     0.000384   107.954589
	   18 B(2,4,7)        =    111.701219    -0.000001    -0.011888   111.689332
	   19 B(3,4,7)        =    110.656716    -0.000001     0.001555   110.658271
	   20 B(4,7,5)        =    109.792899     0.000001     0.015450   109.808349
	   21 B(4,7,6)        =    109.776179    -0.000000    -0.010172   109.766007
	   22 B(4,7,10)       =    112.632179    -0.000001    -0.014458   112.617721
	   23 B(5,7,6)        =    106.476664    -0.000000     0.005924   106.482588
	   24 B(5,7,10)       =    108.708508    -0.000000     0.009217   108.717725
	   25 B(6,7,10)       =    109.260101     0.000001    -0.004699   109.255403
	   26 B(7,10,8)       =    109.558556     0.000004    -0.015761   109.542795
	   27 B(7,10,9)       =    108.291944    -0.000003     0.009771   108.301715
	   28 B(7,10,14)      =    112.714809    -0.000001    -0.001072   112.713737
	   29 B(8,10,9)       =    106.380365    -0.000000     0.005376   106.385741
	   30 B(8,10,14)      =    110.036172    -0.000000    -0.016309   110.019863
	   31 B(9,10,14)      =    109.646481     0.000001     0.018862   109.665343
	   32 B(10,14,11)     =    111.026065     0.000000     0.004154   111.030218
	   33 B(10,14,12)     =    111.335862    -0.000003    -0.008336   111.327526
	   34 B(10,14,13)     =    111.021128     0.000001     0.014863   111.035991
	   35 B(11,14,12)     =    107.862689     0.000001    -0.002000   107.860689
	   36 B(11,14,13)     =    108.522408     0.000003    -0.010500   108.511908
	   37 B(12,14,13)     =    106.908640    -0.000003     0.001135   106.909775
	   38 D(1,4,7,5)      =   -178.229297    -0.000000    -0.134985  -178.364282
	   39 D(1,4,7,6)      =    -61.503483    -0.000000    -0.124724   -61.628207
	   40 D(1,4,7,10)     =     60.480357     0.000000    -0.147911    60.332446
	   41 D(2,4,7,5)      =    -57.867458    -0.000000    -0.138047   -58.005505
	   42 D(2,4,7,6)      =     58.858356     0.000000    -0.127787    58.730569
	   43 D(2,4,7,10)     =   -179.157804     0.000000    -0.150973  -179.308777
	   44 D(3,4,7,5)      =     62.437601    -0.000000    -0.144456    62.293145
	   45 D(3,4,7,6)      =    179.163414    -0.000000    -0.134195   179.029219
	   46 D(3,4,7,10)     =    -58.852745    -0.000000    -0.157382   -59.010127
	   47 D(4,7,10,8)     =    -55.446051     0.000000     0.130389   -55.315662
	   48 D(4,7,10,9)     =     60.189645     0.000000     0.133716    60.323361
	   49 D(4,7,10,14)    =   -178.326299    -0.000000     0.163589  -178.162710
	   50 D(5,7,10,8)     =   -177.352024     0.000000     0.113853  -177.238171
	   51 D(5,7,10,9)     =    -61.716328     0.000000     0.117180   -61.599148
	   52 D(5,7,10,14)    =     59.767728    -0.000000     0.147053    59.914781
	   53 D(6,7,10,8)     =     66.829083     0.000000     0.104270    66.933353
	   54 D(6,7,10,9)     =   -177.535221     0.000000     0.107596  -177.427624
	   55 D(6,7,10,14)    =    -56.051165    -0.000000     0.137470   -55.913695
	   56 D(7,10,14,11)   =    -41.153289     0.000001     0.011073   -41.142216
	   57 D(7,10,14,12)   =   -161.347960     0.000001     0.016402  -161.331558
	   58 D(7,10,14,13)   =     79.664897     0.000002     0.010640    79.675537
	   59 D(8,10,14,11)   =   -163.766210    -0.000000     0.044071  -163.722139
	   60 D(8,10,14,12)   =     76.039120    -0.000000     0.049400    76.088520
	   61 D(8,10,14,13)   =    -42.948023     0.000001     0.043637   -42.904386
	   62 D(9,10,14,11)   =     79.558867    -0.000000     0.035973    79.594840
	   63 D(9,10,14,12)   =    -40.635804    -0.000000     0.041302   -40.594502
	   64 D(9,10,14,13)   =   -159.622947     0.000001     0.035540  -159.587407
	 ---------------------------------------------------------------------------
	Successfully symmetrized geometry.
	 Forces used to impose fixed constraints are not included.
	  Forces zeroed: 58 

  ==> Convergence Check <==

  Measures of convergence in internal coordinates in au.
  Criteria marked as inactive (o), active & met (*), and active & unmet ( ).
  ---------------------------------------------------------------------------------------------
   Step     Total Energy     Delta E     MAX Force     RMS Force      MAX Disp      RMS Disp   
  ---------------------------------------------------------------------------------------------
    Convergence Criteria    1.00e-06 *    3.00e-04 *             o    1.20e-03 *             o
  ---------------------------------------------------------------------------------------------
      6    -158.15999931    8.31e-07 *    5.81e-05 *    1.99e-05 o    2.86e-03      1.28e-03 o  ~
  ---------------------------------------------------------------------------------------------


  **** Optimization is complete! (in 6 steps) ****

  ==> Optimization Summary <==

  Measures of convergence in internal coordinates in au.
  --------------------------------------------------------------------------------------------------------------- ~
   Step         Total Energy             Delta E       MAX Force       RMS Force        MAX Disp        RMS Disp  ~
  --------------------------------------------------------------------------------------------------------------- ~
      1    -158.155705306027   -158.155705306027      0.01318761      0.00560498      0.02524522      0.01250557  ~
      2    -158.158743571809     -0.003038265783      0.00492555      0.00226232      0.03078521      0.01252298  ~
      3    -158.159759232648     -0.001015660838      0.00163158      0.00062267      0.04484008      0.01252090  ~
      4    -158.159983378096     -0.000224145448      0.00069556      0.00016976      0.02750987      0.00862413  ~
      5    -158.160000143105     -0.000016765009      0.00013039      0.00004511      0.00356637      0.00139250  ~
      6    -158.159999312338      0.000000830767      0.00011115      0.00002429      0.00285517      0.00127860  ~
  --------------------------------------------------------------------------------------------------------------- ~

	Writing optimization data to binary file.
	Final energy is   -158.1599993123378
	Final (previous) structure:
	Cartesian Geometry (in Angstrom)
	    H    -2.3461278157   0.0605760704   0.3391092986
	    H    -2.2066084909   1.6895324067  -0.3125492839
	    H    -1.9251326885   0.2967983185  -1.3511992649
	    C    -1.7807120943   0.6894492567  -0.3461541169
	    H     0.2380343493   1.3526985180  -0.6559704239
	    H    -0.1791780398   1.1037414639   1.0235029516
	    C    -0.3087797521   0.6940752797   0.0201255258
	    H    -0.2536453423  -1.3707220976   0.5959552065
	    H     0.2128301502  -1.0647367877  -1.0592760649
	    C     0.3120200613  -0.6887093982  -0.0398066578
	    H     2.2989906025   0.1680939050  -0.0471208322
	    H     2.2827687278  -1.5895806206   0.0151171068
	    H     1.8821433355  -0.6732847193   1.4487429870
	    C     1.7771295623  -0.6925573127   0.3661450140
	Saving final (previous) structure.
			--------------------------
			 OPTKING Finished Execution 
			--------------------------

    Final optimized geometry and variables:
    Molecular point group: c1
    Full point group: C1

    Geometry (in Angstrom), charge = 0, multiplicity = 1:

    H           -2.346127815743     0.060576070415     0.339109298567
    H           -2.206608490909     1.689532406745    -0.312549283949
    H           -1.925132688543     0.296798318526    -1.351199264944
    C           -1.780712094269     0.689449256738    -0.346154116930
    H            0.238034349333     1.352698518004    -0.655970423887
    H           -0.179178039773     1.103741463858     1.023502951618
    C           -0.308779752057     0.694075279679     0.020125525824
    H           -0.253645342259    -1.370722097586     0.595955206492
    H            0.212830150185    -1.064736787713    -1.059276064884
    C            0.312020061260    -0.688709398160    -0.039806657802
    H            2.298990602538     0.168093904967    -0.047120832217
    H            2.282768727779    -1.589580620592     0.015117106762
    H            1.882143335492    -0.673284719320     1.448742987031
    C            1.777129562279    -0.692557312650     0.366145013961

	Cleaning optimization helper files.

*** Psi4 exiting successfully. Buy a developer a beer!
