
    -----------------------------------------------------------------------
          Psi4: An Open-Source Ab Initio Electronic Structure Package
                               Psi4 1.1 release

                         Git: Rev {HEAD} add49b9 


    R. M. Parrish, L. A. Burns, D. G. A. Smith, A. C. Simmonett,
    A. E. DePrince III, E. G. Hohenstein, U. Bozkaya, A. Yu. Sokolov,
    R. Di Remigio, R. M. Richard, J. F. Gonthier, A. M. James,
    H. R. McAlexander, A. Kumar, M. Saitow, X. Wang, B. P. Pritchard,
    P. Verma, H. F. Schaefer III, K. Patkowski, R. A. King, E. F. Valeev,
    F. A. Evangelista, J. M. Turney, T. D. Crawford, and C. D. Sherrill,
    J. Chem. Theory Comput. in press (2017).
    (doi: 10.1021/acs.jctc.7b00174)

    -----------------------------------------------------------------------


    Psi4 started on: Wednesday, 14 June 2017 02:43PM

    Process ID:  14204
    PSIDATADIR: /cbio/jclab/home/chayas/anaconda/envs/py35/share/psi4
    Memory:     500.0 MiB
    Threads:    1
    
  ==> Input File <==

--------------------------------------------------------------------------

memory 1000 mb

molecule butane {
  symmetry C1
  0 1 
  H      1.604   0.760   -8.260
  H      1.745   2.388   -8.880
  H      2.043   1.024   -9.930
  C      2.142   1.395   -8.932
  H      4.169   2.051   -9.210
  H      3.731   1.788   -7.539
  C      3.631   1.416   -8.537
  H      3.665   -0.647   -7.940
  H      4.104   -0.384   -9.610
  C      4.203   -0.012   -8.612
  H      5.833   0.680   -7.397
  H      6.277   0.336   -9.051
  H      5.999   -0.975   -7.931
  C      5.691   0.009   -8.218
  units Angstrom
}

dih_string = "7 10 14 13 160"
set optking fixed_dihedral = $dih_string

optimize('MP2/aug-cc-pvtz')
--------------------------------------------------------------------------

  Memory set to 953.674 MiB by Python driver.
gradient() will perform analytic gradient computation.

*** tstart() called on gpu-1-11.local
*** at Wed Jun 14 14:43:20 2017

    SCF Algorithm Type (re)set to DF.

*** tstart() called on gpu-1-11.local
*** at Wed Jun 14 14:43:20 2017

   => Loading Basis Set <=

    Name: AUG-CC-PVTZ
    Role: ORBITAL
    Keyword: BASIS
    atoms 1-3, 5-6, 8-9, 11-13 entry H          line    34 file /cbio/jclab/home/chayas/anaconda/envs/py35/share/psi4/basis/aug-cc-pvtz.gbs 
    atoms 4, 7, 10, 14         entry C          line   221 file /cbio/jclab/home/chayas/anaconda/envs/py35/share/psi4/basis/aug-cc-pvtz.gbs 


         ---------------------------------------------------------
                                   SCF
            by Justin Turney, Rob Parrish, and Andy Simmonett
                              RHF Reference
                        1 Threads,    953 MiB Core
         ---------------------------------------------------------

  ==> Geometry <==

    Molecular point group: c1
    Full point group: C1

    Geometry (in Angstrom), charge = 0, multiplicity = 1:

       Center              X                  Y                   Z               Mass       
    ------------   -----------------  -----------------  -----------------  -----------------
           H         -2.312793382205     0.057982647118     0.314758676441     1.007825032070
           H         -2.171793382205     1.685982647118    -0.305241323559     1.007825032070
           H         -1.873793382205     0.321982647118    -1.355241323559     1.007825032070
           C         -1.774793382205     0.692982647118    -0.357241323559    12.000000000000
           H          0.252206617795     1.348982647118    -0.635241323559     1.007825032070
           H         -0.185793382205     1.085982647118     1.035758676441     1.007825032070
           C         -0.285793382205     0.713982647118     0.037758676441    12.000000000000
           H         -0.251793382205    -1.349017352882     0.634758676441     1.007825032070
           H          0.187206617795    -1.086017352882    -1.035241323559     1.007825032070
           C          0.286206617795    -0.714017352882    -0.037241323559    12.000000000000
           H          1.916206617795    -0.022017352882     1.177758676441     1.007825032070
           H          2.360206617795    -0.366017352882    -0.476241323559     1.007825032070
           H          2.082206617795    -1.677017352882     0.643758676441     1.007825032070
           C          1.774206617795    -0.693017352882     0.356758676441    12.000000000000

  Running in c1 symmetry.

  Rotational constants: A =      0.76955  B =      0.12464  C =      0.11638 [cm^-1]
  Rotational constants: A =  23070.59241  B =   3736.61456  C =   3488.86805 [MHz]
  Nuclear repulsion =  131.827464917647745

  Charge       = 0
  Multiplicity = 1
  Electrons    = 34
  Nalpha       = 17
  Nbeta        = 17

  ==> Algorithm <==

  SCF Algorithm Type is DF.
  DIIS enabled.
  MOM disabled.
  Fractional occupation disabled.
  Guess Type is SAD.
  Energy threshold   = 1.00e-10
  Density threshold  = 1.00e-10
  Integral threshold = 0.00e+00

  ==> Primary Basis <==

  Basis Set: AUG-CC-PVTZ
    Blend: AUG-CC-PVTZ
    Number of shells: 146
    Number of basis function: 414
    Number of Cartesian functions: 470
    Spherical Harmonics?: true
    Max angular momentum: 3

   => Loading Basis Set <=

    Name: (AUG-CC-PVTZ AUX)
    Role: JKFIT
    Keyword: DF_BASIS_SCF
    atoms 1-3, 5-6, 8-9, 11-13 entry H          line    69 file /cbio/jclab/home/chayas/anaconda/envs/py35/share/psi4/basis/aug-cc-pvtz-jkfit.gbs 
    atoms 4, 7, 10, 14         entry C          line   161 file /cbio/jclab/home/chayas/anaconda/envs/py35/share/psi4/basis/aug-cc-pvtz-jkfit.gbs 

  ==> Pre-Iterations <==

   -------------------------------------------------------
    Irrep   Nso     Nmo     Nalpha   Nbeta   Ndocc  Nsocc
   -------------------------------------------------------
     A        414     414       0       0       0       0
   -------------------------------------------------------
    Total     414     414      17      17      17       0
   -------------------------------------------------------

  ==> Integral Setup <==

  ==> DFJK: Density-Fitted J/K Matrices <==

    J tasked:                  Yes
    K tasked:                  Yes
    wK tasked:                  No
    OpenMP threads:              1
    Integrals threads:           1
    Memory (MB):               715
    Algorithm:                Core
    Integral Cache:           NONE
    Schwarz Cutoff:          1E-12
    Fitting Condition:       1E-12

   => Auxiliary Basis Set <=

  Basis Set: (AUG-CC-PVTZ AUX)
    Blend: AUG-CC-PVTZ-JKFIT
    Number of shells: 260
    Number of basis function: 876
    Number of Cartesian functions: 1074
    Spherical Harmonics?: true
    Max angular momentum: 4

  Minimum eigenvalue in the overlap matrix is 8.3447279143E-06.
  Using Symmetric Orthogonalization.

  SCF Guess: Superposition of Atomic Densities via on-the-fly atomic UHF.

  ==> Iterations <==

                           Total Energy        Delta E     RMS |[F,P]|

   @DF-RHF iter   0:  -159.07159148781577   -1.59072e+02   9.59990e-03 
   @DF-RHF iter   1:  -157.25827503788287    1.81332e+00   8.30949e-04 
   @DF-RHF iter   2:  -157.34219632209101   -8.39213e-02   2.39226e-04 DIIS
   @DF-RHF iter   3:  -157.35020860964997   -8.01229e-03   9.48768e-05 DIIS
   @DF-RHF iter   4:  -157.35134144317902   -1.13283e-03   2.06060e-05 DIIS
   @DF-RHF iter   5:  -157.35141711760653   -7.56744e-05   3.91499e-06 DIIS
   @DF-RHF iter   6:  -157.35142082885980   -3.71125e-06   7.40929e-07 DIIS
   @DF-RHF iter   7:  -157.35142094030701   -1.11447e-07   1.57694e-07 DIIS
   @DF-RHF iter   8:  -157.35142094503399   -4.72699e-09   3.32166e-08 DIIS
   @DF-RHF iter   9:  -157.35142094525685   -2.22855e-10   9.74260e-09 DIIS
   @DF-RHF iter  10:  -157.35142094527444   -1.75930e-11   2.44406e-09 DIIS
   @DF-RHF iter  11:  -157.35142094527501   -5.68434e-13   4.76440e-10 DIIS
   @DF-RHF iter  12:  -157.35142094527532   -3.12639e-13   1.17510e-10 DIIS
   @DF-RHF iter  13:  -157.35142094527598   -6.53699e-13   3.46236e-11 DIIS

  ==> Post-Iterations <==

    Orbital Energies (a.u.)
    -----------------------

    Doubly Occupied:                                                      

       1A    -11.207153     2A    -11.206239     3A    -11.198666  
       4A    -11.198202     5A     -1.070702     6A     -0.981134  
       7A     -0.861518     8A     -0.795046     9A     -0.647343  
      10A     -0.587541    11A     -0.575754    12A     -0.570865  
      13A     -0.513961    14A     -0.503705    15A     -0.475338  
      16A     -0.468564    17A     -0.441453  

    Virtual:                                                              

      18A      0.032282    19A      0.037234    20A      0.039546  
      21A      0.040788    22A      0.057060    23A      0.058512  
      24A      0.059791    25A      0.061040    26A      0.081902  
      27A      0.083313    28A      0.098533    29A      0.112474  
      30A      0.123181    31A      0.130717    32A      0.136174  
      33A      0.142056    34A      0.143280    35A      0.146382  
      36A      0.148386    37A      0.159849    38A      0.161414  
      39A      0.167263    40A      0.170867    41A      0.202004  
      42A      0.209116    43A      0.210901    44A      0.229828  
      45A      0.247372    46A      0.249627    47A      0.252604  
      48A      0.269619    49A      0.276791    50A      0.282676  
      51A      0.284375    52A      0.315538    53A      0.318079  
      54A      0.330917    55A      0.337000    56A      0.342380  
      57A      0.351190    58A      0.357641    59A      0.358452  
      60A      0.362663    61A      0.373579    62A      0.374631  
      63A      0.383294    64A      0.386857    65A      0.389948  
      66A      0.392000    67A      0.396817    68A      0.402376  
      69A      0.407442    70A      0.413737    71A      0.422512  
      72A      0.429701    73A      0.443716    74A      0.448897  
      75A      0.455697    76A      0.462132    77A      0.464052  
      78A      0.465154    79A      0.474865    80A      0.481305  
      81A      0.487516    82A      0.493811    83A      0.501478  
      84A      0.504022    85A      0.509224    86A      0.513235  
      87A      0.520282    88A      0.533078    89A      0.533596  
      90A      0.537398    91A      0.545437    92A      0.560141  
      93A      0.567562    94A      0.572972    95A      0.586577  
      96A      0.591698    97A      0.602472    98A      0.611297  
      99A      0.621974   100A      0.631669   101A      0.638895  
     102A      0.660645   103A      0.681041   104A      0.686296  
     105A      0.700919   106A      0.712204   107A      0.762629  
     108A      0.779093   109A      0.797251   110A      0.814709  
     111A      0.822437   112A      0.827720   113A      0.836803  
     114A      0.844838   115A      0.849426   116A      0.860288  
     117A      0.864545   118A      0.867268   119A      0.886251  
     120A      0.892264   121A      0.897107   122A      0.902841  
     123A      0.906551   124A      0.922414   125A      0.926936  
     126A      0.931626   127A      0.937191   128A      0.943385  
     129A      0.944343   130A      0.960507   131A      0.967075  
     132A      0.971409   133A      0.978809   134A      0.986334  
     135A      0.994000   136A      1.015032   137A      1.019786  
     138A      1.035042   139A      1.049019   140A      1.065617  
     141A      1.071932   142A      1.081104   143A      1.093887  
     144A      1.110549   145A      1.114057   146A      1.123867  
     147A      1.130706   148A      1.133672   149A      1.141721  
     150A      1.159030   151A      1.164256   152A      1.166606  
     153A      1.176996   154A      1.193145   155A      1.202081  
     156A      1.219844   157A      1.224033   158A      1.232009  
     159A      1.246343   160A      1.256463   161A      1.260866  
     162A      1.265272   163A      1.273551   164A      1.279814  
     165A      1.296117   166A      1.304019   167A      1.321589  
     168A      1.327708   169A      1.342089   170A      1.352994  
     171A      1.360538   172A      1.388831   173A      1.401073  
     174A      1.423932   175A      1.432340   176A      1.442053  
     177A      1.462298   178A      1.482457   179A      1.499503  
     180A      1.508027   181A      1.522186   182A      1.526512  
     183A      1.551801   184A      1.559219   185A      1.563255  
     186A      1.586628   187A      1.593679   188A      1.616262  
     189A      1.632298   190A      1.645859   191A      1.649841  
     192A      1.652304   193A      1.677498   194A      1.692707  
     195A      1.695327   196A      1.702728   197A      1.711565  
     198A      1.721172   199A      1.733361   200A      1.743541  
     201A      1.745134   202A      1.759553   203A      1.766027  
     204A      1.777893   205A      1.782887   206A      1.795643  
     207A      1.797863   208A      1.809848   209A      1.822005  
     210A      1.846481   211A      1.864391   212A      1.872415  
     213A      1.890476   214A      1.904322   215A      1.916150  
     216A      1.927084   217A      1.961193   218A      1.975046  
     219A      1.986548   220A      1.993092   221A      2.001041  
     222A      2.009120   223A      2.033305   224A      2.043496  
     225A      2.048961   226A      2.066700   227A      2.092300  
     228A      2.102782   229A      2.124235   230A      2.145175  
     231A      2.162573   232A      2.193599   233A      2.196612  
     234A      2.207767   235A      2.243499   236A      2.256077  
     237A      2.264519   238A      2.281492   239A      2.301549  
     240A      2.310307   241A      2.333450   242A      2.336035  
     243A      2.348683   244A      2.359294   245A      2.372219  
     246A      2.375758   247A      2.424793   248A      2.444854  
     249A      2.466689   250A      2.479851   251A      2.506875  
     252A      2.554108   253A      2.603117   254A      2.622256  
     255A      2.640351   256A      2.663184   257A      2.716314  
     258A      2.889055   259A      2.924087   260A      3.009585  
     261A      3.235072   262A      3.249260   263A      3.303296  
     264A      3.372071   265A      3.389530   266A      3.421086  
     267A      3.450936   268A      3.454972   269A      3.471360  
     270A      3.485504   271A      3.524955   272A      3.542765  
     273A      3.571881   274A      3.572861   275A      3.597086  
     276A      3.609493   277A      3.629649   278A      3.664886  
     279A      3.685378   280A      3.694807   281A      3.714764  
     282A      3.719591   283A      3.736842   284A      3.743664  
     285A      3.757209   286A      3.769893   287A      3.779407  
     288A      3.799567   289A      3.810599   290A      3.823893  
     291A      3.846338   292A      3.858693   293A      3.877190  
     294A      3.889017   295A      3.915583   296A      3.928351  
     297A      3.940147   298A      3.950398   299A      3.976798  
     300A      3.996932   301A      4.008297   302A      4.016911  
     303A      4.022893   304A      4.025046   305A      4.049260  
     306A      4.058552   307A      4.071782   308A      4.084900  
     309A      4.124656   310A      4.183042   311A      4.198573  
     312A      4.212348   313A      4.231319   314A      4.240122  
     315A      4.251653   316A      4.277081   317A      4.280485  
     318A      4.290218   319A      4.309786   320A      4.333332  
     321A      4.339305   322A      4.373163   323A      4.381994  
     324A      4.411170   325A      4.427027   326A      4.443067  
     327A      4.526839   328A      4.551814   329A      4.577354  
     330A      4.590330   331A      4.632195   332A      4.666275  
     333A      4.687011   334A      4.698924   335A      4.718736  
     336A      4.735978   337A      4.745917   338A      4.751228  
     339A      4.773483   340A      4.795444   341A      4.808163  
     342A      4.861638   343A      4.869235   344A      4.884218  
     345A      4.890150   346A      4.916540   347A      4.942290  
     348A      4.955234   349A      4.974698   350A      5.006530  
     351A      5.043233   352A      5.069488   353A      5.083935  
     354A      5.094482   355A      5.131699   356A      5.171372  
     357A      5.181132   358A      5.200057   359A      5.207331  
     360A      5.238649   361A      5.254613   362A      5.270658  
     363A      5.276644   364A      5.310512   365A      5.319073  
     366A      5.340054   367A      5.391734   368A      5.413953  
     369A      5.438736   370A      5.449936   371A      5.458634  
     372A      5.468392   373A      5.498594   374A      5.519331  
     375A      5.584434   376A      5.602882   377A      5.625318  
     378A      5.643874   379A      5.680320   380A      5.683764  
     381A      5.698362   382A      5.758019   383A      5.777249  
     384A      5.790974   385A      5.820737   386A      5.861989  
     387A      5.906753   388A      5.918953   389A      5.958327  
     390A      6.025368   391A      6.120838   392A      6.157168  
     393A      6.174990   394A      6.191177   395A      6.245215  
     396A      6.264895   397A      6.271735   398A      6.315537  
     399A      6.318482   400A      6.357797   401A      6.407472  
     402A      6.437491   403A      6.556845   404A      6.570519  
     405A      6.747835   406A      6.784146   407A      6.830722  
     408A      6.849853   409A      6.857806   410A      6.984113  
     411A     18.069273   412A     18.381651   413A     18.671622  
     414A     18.953678  

    Final Occupation by Irrep:
              A 
    DOCC [    17 ]

  Energy converged.

  @DF-RHF Final Energy:  -157.35142094527598

   => Energetics <=

    Nuclear Repulsion Energy =            131.8274649176477453
    One-Electron Energy =                -471.7514030515322361
    Two-Electron Energy =                 182.5725171886084865
    DFT Exchange-Correlation Energy =       0.0000000000000000
    Empirical Dispersion Energy =           0.0000000000000000
    PCM Polarization Energy =               0.0000000000000000
    EFP Energy =                            0.0000000000000000
    Total Energy =                       -157.3514209452759758



Properties will be evaluated at   0.000000,   0.000000,   0.000000 Bohr

Properties computed using the SCF density matrix

  Nuclear Dipole Moment: (a.u.)
     X:     0.0019      Y:     0.0008      Z:    -0.0004

  Electronic Dipole Moment: (a.u.)
     X:    -0.0016      Y:    -0.0010      Z:    -0.0014

  Dipole Moment: (a.u.)
     X:     0.0003      Y:    -0.0003      Z:    -0.0018     Total:     0.0019

  Dipole Moment: (Debye)
     X:     0.0007      Y:    -0.0006      Z:    -0.0046     Total:     0.0047


*** tstop() called on gpu-1-11.local at Wed Jun 14 14:45:03 2017
Module time:
	user time   =     102.53 seconds =       1.71 minutes
	system time =       0.57 seconds =       0.01 minutes
	total time  =        103 seconds =       1.72 minutes
Total time:
	user time   =     102.54 seconds =       1.71 minutes
	system time =       0.57 seconds =       0.01 minutes
	total time  =        103 seconds =       1.72 minutes

  //>>>>>>>>>>>>>>>>>>>>>>>>>>>>>>>>>>>//
  //               DFMP2               //
  //<<<<<<<<<<<<<<<<<<<<<<<<<<<<<<<<<<<//

   => Loading Basis Set <=

    Name: (AUG-CC-PVTZ AUX)
    Role: RIFIT
    Keyword: DF_BASIS_MP2
    atoms 1-3, 5-6, 8-9, 11-13 entry H          line    29 file /cbio/jclab/home/chayas/anaconda/envs/py35/share/psi4/basis/aug-cc-pvtz-ri.gbs 
    atoms 4, 7, 10, 14         entry C          line   147 file /cbio/jclab/home/chayas/anaconda/envs/py35/share/psi4/basis/aug-cc-pvtz-ri.gbs 

	 --------------------------------------------------------
	                          DF-MP2                         
	      2nd-Order Density-Fitted Moller-Plesset Theory     
	              RMP2 Wavefunction,   1 Threads             
	                                                         
	        Rob Parrish, Justin Turney, Andy Simmonett,      
	           Ed Hohenstein, and C. David Sherrill          
	 --------------------------------------------------------

   => Auxiliary Basis Set <=

  Basis Set: (AUG-CC-PVTZ AUX)
    Blend: AUG-CC-PVTZ-RI
    Number of shells: 252
    Number of basis function: 884
    Number of Cartesian functions: 1094
    Spherical Harmonics?: true
    Max angular momentum: 4

	 --------------------------------------------------------
	                 NBF =   414, NAUX =   884
	 --------------------------------------------------------
	   CLASS    FOCC     OCC    AOCC    AVIR     VIR    FVIR
	   PAIRS       0      17      17     397     397       0
	 --------------------------------------------------------


         ------------------------------------------------------------
                                     CPHF                           
                                  Rob Parrish                       
         ------------------------------------------------------------

  ==> Geometry <==

    Molecular point group: c1
    Full point group: C1

    Geometry (in Angstrom), charge = 0, multiplicity = 1:

       Center              X                  Y                   Z               Mass       
    ------------   -----------------  -----------------  -----------------  -----------------
           H         -2.312793382205     0.057982647118     0.314758676441     1.007825032070
           H         -2.171793382205     1.685982647118    -0.305241323559     1.007825032070
           H         -1.873793382205     0.321982647118    -1.355241323559     1.007825032070
           C         -1.774793382205     0.692982647118    -0.357241323559    12.000000000000
           H          0.252206617795     1.348982647118    -0.635241323559     1.007825032070
           H         -0.185793382205     1.085982647118     1.035758676441     1.007825032070
           C         -0.285793382205     0.713982647118     0.037758676441    12.000000000000
           H         -0.251793382205    -1.349017352882     0.634758676441     1.007825032070
           H          0.187206617795    -1.086017352882    -1.035241323559     1.007825032070
           C          0.286206617795    -0.714017352882    -0.037241323559    12.000000000000
           H          1.916206617795    -0.022017352882     1.177758676441     1.007825032070
           H          2.360206617795    -0.366017352882    -0.476241323559     1.007825032070
           H          2.082206617795    -1.677017352882     0.643758676441     1.007825032070
           C          1.774206617795    -0.693017352882     0.356758676441    12.000000000000

  Nuclear repulsion =  131.827464917647745
  Reference energy  = -157.351420945275976

  ==> Basis Set <==

  Basis Set: AUG-CC-PVTZ
    Blend: AUG-CC-PVTZ
    Number of shells: 146
    Number of basis function: 414
    Number of Cartesian functions: 470
    Spherical Harmonics?: true
    Max angular momentum: 3

  ==> CGRSolver (by Rob Parrish) <==

   Number of roots    =         1
   Preconditioning    =    JACOBI
   Convergence cutoff =     1E-06
   Maximum iterations =       100

  ==> CPHFRHamiltonian (by Rob Parrish) <== 

  ==> DFJK: Density-Fitted J/K Matrices <==

    J tasked:                  Yes
    K tasked:                  Yes
    wK tasked:                  No
    OpenMP threads:              1
    Integrals threads:           1
    Memory (MB):               715
    Algorithm:                Core
    Integral Cache:           NONE
    Schwarz Cutoff:          1E-12
    Fitting Condition:       1E-12

   => Auxiliary Basis Set <=

  Basis Set: (AUG-CC-PVTZ AUX)
    Blend: AUG-CC-PVTZ-JKFIT
    Number of shells: 260
    Number of basis function: 876
    Number of Cartesian functions: 1074
    Spherical Harmonics?: true
    Max angular momentum: 4

  ==> CPHF Iterations <==

  => Iterations <=

             Iter  Converged  Remaining    Residual
  CGR           1          0          1   8.160E-02
  CGR           2          0          1   1.305E-02
  CGR           3          0          1   3.414E-03
  CGR           4          0          1   8.053E-04
  CGR           5          0          1   1.185E-04
  CGR           6          0          1   2.131E-05
  CGR           7          0          1   3.775E-06
  CGR           8          1          0   8.657E-07

    CGRSolver converged.

  ==> DFCorrGrad: Density-Fitted Correlated Gradients <==

    OpenMP threads:              1
    Integrals threads:           1
    Memory (MB):               715
    Schwarz Cutoff:          0E+00
    Fitting Condition:       1E-12

   => Auxiliary Basis Set <=

  Basis Set: (AUG-CC-PVTZ AUX)
    Blend: AUG-CC-PVTZ-JKFIT
    Number of shells: 260
    Number of basis function: 876
    Number of Cartesian functions: 1074
    Spherical Harmonics?: true
    Max angular momentum: 4

	-----------------------------------------------------------
	 ==================> DF-MP2 Energies <==================== 
	-----------------------------------------------------------
	 Reference Energy          =    -157.3514209452759758 [Eh]
	 Singles Energy            =      -0.0000000000000000 [Eh]
	 Same-Spin Energy          =      -0.1654005195232184 [Eh]
	 Opposite-Spin Energy      =      -0.6388838097436044 [Eh]
	 Correlation Energy        =      -0.8042843292668227 [Eh]
	 Total Energy              =    -158.1557052745428109 [Eh]
	-----------------------------------------------------------
	 ================> DF-SCS-MP2 Energies <================== 
	-----------------------------------------------------------
	 SCS Same-Spin Scale       =       0.3333333333333333 [-]
	 SCS Opposite-Spin Scale   =       1.2000000000000000 [-]
	 SCS Same-Spin Energy      =      -0.0551335065077394 [Eh]
	 SCS Opposite-Spin Energy  =      -0.7666605716923253 [Eh]
	 SCS Correlation Energy    =      -0.8217940782000647 [Eh]
	 SCS Total Energy          =    -158.1732150234760468 [Eh]
	-----------------------------------------------------------


  -Total Gradient:
     Atom            X                  Y                   Z
    ------   -----------------  -----------------  -----------------
       1        0.007820064613     0.006795788486    -0.006375743908
       2        0.008172811769    -0.009376240364     0.000620760310
       3        0.003354934313     0.004148121957     0.011226459153
       4       -0.025253675583    -0.007142430420    -0.007738448357
       5       -0.007933739399    -0.008478727971     0.006041630215
       6       -0.003164905287    -0.005224854395    -0.011413337195
       7        0.022231528862     0.030930718898     0.012407513831
       8        0.008390799684     0.007659124755    -0.006526450830
       9        0.003842306252     0.006205184736     0.011035511727
      10       -0.020082587623    -0.030844813424    -0.011067501615
      11       -0.003881064890    -0.006290620615    -0.009607431709
      12       -0.008685377102    -0.004412443260     0.007205844875
      13       -0.007843571437     0.009506492222    -0.002911871148
      14        0.023032475825     0.006524699397     0.007103064648


*** tstop() called on gpu-1-11.local at Wed Jun 14 14:51:25 2017
Module time:
	user time   =     479.36 seconds =       7.99 minutes
	system time =       4.30 seconds =       0.07 minutes
	total time  =        485 seconds =       8.08 minutes
Total time:
	user time   =     479.37 seconds =       7.99 minutes
	system time =       4.30 seconds =       0.07 minutes
	total time  =        485 seconds =       8.08 minutes

			-----------------------------------------
			 OPTKING 2.0: for geometry optimizations 
			  - R.A. King,  Bethel University        
			-----------------------------------------

	Internal coordinates to be generated automatically.
	Detected frag 1 with atoms:  1 2 3 4 5 6 7 8 9 10 11 12 13 14
	---Fragment 1 Bond Connectivity---
	 1 : 4
	 2 : 4
	 3 : 4
	 4 : 1 2 3 7
	 5 : 7
	 6 : 7
	 7 : 4 5 6 10
	 8 : 10
	 9 : 10
	 10 : 7 8 9 14
	 11 : 14
	 12 : 14
	 13 : 14
	 14 : 10 11 12 13

	Assuming in current code that numbering for constraints corresponds to unified fragment.
	Fixed dihedral atom list: 
	     7    10    14    13
	---Fragment 1 Geometry and Gradient---
	 H          -4.3705460943        0.1095713235        0.5948076964
	 H          -4.1040947096        3.1860454679       -0.5768225060
	 H          -3.5409563220        0.6084590226       -2.5610349455
	 C          -3.3538734348        1.3095474179       -0.6750882649
	 H           0.4766014365        2.5492077611       -1.2004321298
	 H          -0.3510986097        2.0522097881        1.9573002382
	 C          -0.5400712230        1.3492316667        0.0713535576
	 H          -0.4758205344       -2.5492733455        1.1995200589
	 H           0.3537692379       -2.0522753725       -1.9563225830
	 C           0.5408521251       -1.3492972511       -0.0703759024
	 H           3.6211057217       -0.0416067671        2.2256413491
	 H           4.4601441247       -0.6916725568       -0.8999656747
	 H           3.9348002597       -3.1691035170        1.2165275941
	 C           3.3527646108       -1.3096130023        0.6741761940
	             0.0078200646        0.0067957885       -0.0063757439
	             0.0081728118       -0.0093762404        0.0006207603
	             0.0033549343        0.0041481220        0.0112264592
	            -0.0252536756       -0.0071424304       -0.0077384484
	            -0.0079337394       -0.0084787280        0.0060416302
	            -0.0031649053       -0.0052248544       -0.0114133372
	             0.0222315289        0.0309307189        0.0124075138
	             0.0083907997        0.0076591248       -0.0065264508
	             0.0038423063        0.0062051847        0.0110355117
	            -0.0200825876       -0.0308448134       -0.0110675016
	            -0.0038810649       -0.0062906206       -0.0096074317
	            -0.0086853771       -0.0044124433        0.0072058449
	            -0.0078435714        0.0095064922       -0.0029118711
	             0.0230324758        0.0065246994        0.0071030646

	Previous optimization step data not found.  Starting new optimization.

	---Fragment 1 Intrafragment Coordinates---
	 - Coordinate -           - BOHR/RAD -       - ANG/DEG -
	 R(1,4)           =         2.021436	       1.069698
	 R(2,4)           =         2.023298	       1.070683
	 R(3,4)           =         2.020723	       1.069320
	 R(4,7)           =         2.911397	       1.540645
	 R(5,7)           =         2.022623	       1.070326
	 R(6,7)           =         2.021555	       1.069761
	 R(7,10)          =         2.910419	       1.540128
	 R(8,10)          =         2.021436	       1.069698
	 R(9,10)          =         2.021379	       1.069668
	 R(10,14)         =         2.909087	       1.539422
	 R(11,14)         =         2.021606	       1.069788
	 R(12,14)         =         2.021401	       1.069679
	 R(13,14)         =         2.022527	       1.070275
	 B(1,4,2)         =         1.910870	     109.484805
	 B(1,4,3)         =         1.911121	     109.499161
	 B(1,4,7)         =         1.910399	     109.457783
	 B(2,4,3)         =         1.910042	     109.437340
	 B(2,4,7)         =         1.910564	     109.467262
	 B(3,4,7)         =         1.910803	     109.480971
	 B(4,7,5)         =         1.909937	     109.431343
	 B(4,7,6)         =         1.911630	     109.528316
	 B(4,7,10)        =         1.911154	     109.501062
	 B(5,7,6)         =         1.910605	     109.469614
	 B(5,7,10)        =         1.910047	     109.437654
	 B(6,7,10)        =         1.910425	     109.459295
	 B(7,10,8)        =         1.910303	     109.452301
	 B(7,10,9)        =         1.910824	     109.482155
	 B(7,10,14)       =         1.911213	     109.504437
	 B(8,10,9)        =         1.910417	     109.458846
	 B(8,10,14)       =         1.910766	     109.478806
	 B(9,10,14)       =         1.910276	     109.450772
	 B(10,14,11)      =         1.910575	     109.467872
	 B(10,14,12)      =         1.911752	     109.535334
	 B(10,14,13)      =         1.911609	     109.527154
	 B(11,14,12)      =         1.910467	     109.461697
	 B(11,14,13)      =         1.909934	     109.431163
	 B(12,14,13)      =         1.909460	     109.404027
	 D(1,4,7,5)       =         3.140997	     179.965873
	 D(1,4,7,6)       =        -1.047644	     -60.025575
	 D(1,4,7,10)      =         1.047427	      60.013132
	 D(2,4,7,5)       =        -1.047689	     -60.028143
	 D(2,4,7,6)       =         1.046856	      59.980409
	 D(2,4,7,10)      =        -3.141259	    -179.980883
	 D(3,4,7,5)       =         1.046044	      59.933911
	 D(3,4,7,6)       =         3.140588	     179.942463
	 D(3,4,7,10)      =        -1.047526	     -60.018830
	 D(4,7,10,8)      =        -1.047368	     -60.009777
	 D(4,7,10,9)      =         1.046677	      59.970178
	 D(4,7,10,14)     =         3.141107	     179.972182
	 D(5,7,10,8)      =        -3.140871	    -179.958653
	 D(5,7,10,9)      =        -1.046826	     -59.978698
	 D(5,7,10,14)     =         1.047604	      60.023306
	 D(6,7,10,8)      =         1.048439	      60.071149
	 D(6,7,10,9)      =        -3.140701	    -179.948896
	 D(6,7,10,14)     =        -1.046271	     -59.946893
	 D(7,10,14,11)    =         0.697941	      39.989085
	 D(7,10,14,12)    =        -1.396900	     -80.036486
	 D(7,10,14,13)    =         2.792042	     159.972224
	 D(8,10,14,11)    =        -1.396486	     -80.012737
	 D(8,10,14,12)    =         2.791858	     159.961692
	 D(8,10,14,13)    =         0.697615	      39.970402
	 D(9,10,14,11)    =         2.792706	     160.010292
	 D(9,10,14,12)    =         0.697865	      39.984721
	 D(9,10,14,13)    =        -1.396378	     -80.006568

	Current energy   :      -158.1557052745

	Generating empirical Hessian (Schlegel '84) for each fragment.
	Adding user-defined constraint: Fragment 1; Coordinate 58:
		Value =     2.792042; Fixed value    =     2.792527
		Force =     0.000242; Force constant =     0.500000
	Removing off-diagonal coupling between coordinate 58 and others.
	Taking RFO optimization step.
	Going to follow RFO solution 1.
	Using RFO vector 1.

	Determining step-restricting scale parameter for RS-RFO.
	Maximum step size allowed    0.10000

	 Iter      |step|        alpha        rfo_root  
	------------------------------------------------
	    0     0.20031       1.00000           1
	    1     0.15695       5.25756           1
	    2     0.12453      15.61267           1
	    3     0.10671      28.31751           1
	    4     0.10070      34.75356           1
	    5     0.10001      35.59396           1
	------------------------------------------------
	Norm of target step-size    0.10001
	Projected energy change by RFO approximation:        -0.0041071557

	Back-transformation to cartesian coordinates...
	Could not converge backtransformation.
	Using first guess instead.

	--- Internal Coordinate Step in ANG or DEG, aJ/ANG or AJ/DEG ---
	 ---------------------------------------------------------------------------
	   Coordinate                Previous        Force       Change         New 
	   ----------                --------       ------       ------       ------
	    1 R(1,4)          =      1.069698     0.098639     0.012072     1.081770
	    2 R(2,4)          =      1.070683     0.096362     0.011812     1.082495
	    3 R(3,4)          =      1.069320     0.100739     0.012318     1.081638
	    4 R(4,7)          =      1.540645    -0.052440    -0.007611     1.533034
	    5 R(5,7)          =      1.070326     0.105596     0.012893     1.083220
	    6 R(6,7)          =      1.069761     0.105130     0.012819     1.082579
	    7 R(7,10)         =      1.540128    -0.074931    -0.010778     1.529350
	    8 R(8,10)         =      1.069698     0.106006     0.012926     1.082624
	    9 R(9,10)         =      1.069668     0.105536     0.012870     1.082538
	   10 R(10,14)        =      1.539422    -0.025256    -0.003610     1.535812
	   11 R(11,14)        =      1.069788     0.097497     0.011987     1.081775
	   12 R(12,14)        =      1.069679     0.096545     0.011814     1.081494
	   13 R(13,14)        =      1.070275     0.097037     0.011888     1.082163
	   14 B(1,4,2)        =    109.484805    -0.000247    -0.570312   108.914493
	   15 B(1,4,3)        =    109.499161    -0.000172    -0.455332   109.043830
	   16 B(1,4,7)        =    109.457783     0.000121     0.271616   109.729399
	   17 B(2,4,3)        =    109.437340    -0.000247    -0.567054   108.870286
	   18 B(2,4,7)        =    109.467262     0.000412     1.004519   110.471781
	   19 B(3,4,7)        =    109.480971     0.000133     0.301248   109.782220
	   20 B(4,7,5)        =    109.431343    -0.000127    -0.161353   109.269990
	   21 B(4,7,6)        =    109.528316    -0.000115    -0.137789   109.390527
	   22 B(4,7,10)       =    109.501062     0.000647     1.390314   110.891376
	   23 B(5,7,6)        =    109.469614     0.000013    -0.222458   109.247155
	   24 B(5,7,10)       =    109.437654    -0.000193    -0.390664   109.046990
	   25 B(6,7,10)       =    109.459295    -0.000225    -0.488069   108.971226
	   26 B(7,10,8)       =    109.452301    -0.000218    -0.489445   108.962856
	   27 B(7,10,9)       =    109.482155    -0.000239    -0.499064   108.983091
	   28 B(7,10,14)      =    109.504437     0.000670     1.442291   110.946728
	   29 B(8,10,9)       =    109.458846     0.000006    -0.257103   109.201744
	   30 B(8,10,14)      =    109.478806    -0.000101    -0.074760   109.404047
	   31 B(9,10,14)      =    109.450772    -0.000118    -0.133934   109.316839
	   32 B(10,14,11)     =    109.467872     0.000142     0.297942   109.765814
	   33 B(10,14,12)     =    109.535334     0.000195     0.474505   110.009838
	   34 B(10,14,13)     =    109.527154     0.000421     1.024070   110.551223
	   35 B(11,14,12)     =    109.461697    -0.000211    -0.545935   108.915762
	   36 B(11,14,13)     =    109.431163    -0.000271    -0.678969   108.752194
	   37 B(12,14,13)     =    109.404027    -0.000277    -0.594343   108.809684
	   38 D(1,4,7,5)      =    179.965873     0.000010     0.141964   180.107836
	   39 D(1,4,7,6)      =    -60.025575    -0.000020    -0.311592   -60.337167
	   40 D(1,4,7,10)     =     60.013132    -0.000008    -0.135877    59.877256
	   41 D(2,4,7,5)      =    -60.028143     0.000016     0.233458   -59.794685
	   42 D(2,4,7,6)      =     59.980409    -0.000015    -0.220097    59.760312
	   43 D(2,4,7,10)     =   -179.980883    -0.000003    -0.044382  -180.025265
	   44 D(3,4,7,5)      =     59.933911     0.000023     0.347842    60.281753
	   45 D(3,4,7,6)      =    179.942463    -0.000008    -0.105713   179.836750
	   46 D(3,4,7,10)     =    -60.018830     0.000004     0.070002   -59.948828
	   47 D(4,7,10,8)     =    -60.009777     0.000031     0.428404   -59.581373
	   48 D(4,7,10,9)     =     59.970178    -0.000032    -0.475586    59.494592
	   49 D(4,7,10,14)    =    179.972182    -0.000005    -0.063072   179.909109
	   50 D(5,7,10,8)     =   -179.958653     0.000003     0.014099  -179.944554
	   51 D(5,7,10,9)     =    -59.978698    -0.000060    -0.889892   -60.868589
	   52 D(5,7,10,14)    =     60.023306    -0.000032    -0.477377    59.545928
	   53 D(6,7,10,8)     =     60.071149     0.000058     0.811119    60.882268
	   54 D(6,7,10,9)     =   -179.948896    -0.000005    -0.092871  -180.041767
	   55 D(6,7,10,14)    =    -59.946893     0.000023     0.319644   -59.627249
	   56 D(7,10,14,11)   =     39.989085     0.000008     0.127830    40.116914
	   57 D(7,10,14,12)   =    -80.036486     0.000020     0.320940   -79.715546
	   58 D(7,10,14,13)   =    159.972224     0.000011     0.114307   160.086531
	   59 D(8,10,14,11)   =    -80.012737    -0.000011    -0.118013   -80.130751
	   60 D(8,10,14,12)   =    159.961692     0.000001     0.075097   160.036789
	   61 D(8,10,14,13)   =     39.970402    -0.000008    -0.131536    39.838866
	   62 D(9,10,14,11)   =    160.010292     0.000018     0.322929   160.333221
	   63 D(9,10,14,12)   =     39.984721     0.000030     0.516039    40.500760
	   64 D(9,10,14,13)   =    -80.006568     0.000021     0.309406   -79.697162
	 ---------------------------------------------------------------------------
	Successfully symmetrized geometry.
	 Forces used to impose fixed constraints are not included.
	  Forces zeroed: 58 

  ==> Convergence Check <==

  Measures of convergence in internal coordinates in au.
  Criteria marked as inactive (o), active & met (*), and active & unmet ( ).
  --------------------------------------------------------------------------------------------- ~
   Step     Total Energy     Delta E     MAX Force     RMS Force      MAX Disp      RMS Disp    ~
  --------------------------------------------------------------------------------------------- ~
    Convergence Criteria    1.00e-06 *    3.00e-04 *             o    1.20e-03 *             o  ~
  --------------------------------------------------------------------------------------------- ~
      1    -158.15570527   -1.58e+02      1.29e-02      5.60e-03 o    2.52e-02      1.25e-02 o  ~
  ---------------------------------------------------------------------------------------------

	Writing optimization data to binary file.
	Structure for next step:
	Cartesian Geometry (in Angstrom)
	    H    -2.3304590767   0.0590563895   0.3174365427
	    H    -2.1870344695   1.6990777519  -0.3078335404
	    H    -1.8878240527   0.3250606635  -1.3669208274
	    C    -1.7774973324   0.6982855635  -0.3577270407
	    H     0.2507438927   1.3487241482  -0.6454681241
	    H    -0.1919497525   1.0824919798   1.0432036538
	    C    -0.2952973535   0.7053616177   0.0337138089
	    H    -0.2541970819  -1.3467078318   0.6455715961
	    H     0.1891882185  -1.0822888759  -1.0421403577
	    C     0.2930996607  -0.7046949357  -0.0329263267
	    H     1.9357763256  -0.0257452788   1.1890773907
	    H     2.3793356662  -0.3682508853  -0.4795578223
	    H     2.0993880395  -1.6908815468   0.6463583872
	    C     1.7786199651  -0.6987317003   0.3568341302
			--------------------------
			 OPTKING Finished Execution 
			--------------------------

    Structure for next step:
    Molecular point group: c1
    Full point group: C1

    Geometry (in Angstrom), charge = 0, multiplicity = 1:

    H           -2.330288448439     0.059001510893     0.317463065176
    H           -2.186863841232     1.699022873312    -0.307807017972
    H           -1.887653424515     0.325005784887    -1.366894304904
    C           -1.777326704153     0.698230684875    -0.357700518264
    H            0.250914520965     1.348669269551    -0.645441601643
    H           -0.191779124236     1.082437101204     1.043230176269
    C           -0.295126725241     0.705306739038     0.033740331404
    H           -0.254026453708    -1.346762710407     0.645598118593
    H            0.189358846688    -1.082343754560    -1.042113835242
    C            0.293270288945    -0.704749814360    -0.032899804259
    H            1.935946953802    -0.025800157396     1.189103913135
    H            2.379506294467    -0.368305763901    -0.479531299830
    H            2.099558667735    -1.690936425454     0.646384909674
    C            1.778790593311    -0.698786578896     0.356860652651

gradient() will perform analytic gradient computation.

*** tstart() called on gpu-1-11.local
*** at Wed Jun 14 14:51:25 2017

    SCF Algorithm Type (re)set to DF.

*** tstart() called on gpu-1-11.local
*** at Wed Jun 14 14:51:25 2017

   => Loading Basis Set <=

    Name: AUG-CC-PVTZ
    Role: ORBITAL
    Keyword: BASIS
    atoms 1-3, 5-6, 8-9, 11-13 entry H          line    34 file /cbio/jclab/home/chayas/anaconda/envs/py35/share/psi4/basis/aug-cc-pvtz.gbs 
    atoms 4, 7, 10, 14         entry C          line   221 file /cbio/jclab/home/chayas/anaconda/envs/py35/share/psi4/basis/aug-cc-pvtz.gbs 


         ---------------------------------------------------------
                                   SCF
            by Justin Turney, Rob Parrish, and Andy Simmonett
                              RHF Reference
                        1 Threads,    953 MiB Core
         ---------------------------------------------------------

  ==> Geometry <==

    Molecular point group: c1
    Full point group: C1

    Geometry (in Angstrom), charge = 0, multiplicity = 1:

       Center              X                  Y                   Z               Mass       
    ------------   -----------------  -----------------  -----------------  -----------------
           H         -2.330288448439     0.059001510893     0.317463065176     1.007825032070
           H         -2.186863841232     1.699022873312    -0.307807017972     1.007825032070
           H         -1.887653424515     0.325005784887    -1.366894304904     1.007825032070
           C         -1.777326704153     0.698230684875    -0.357700518264    12.000000000000
           H          0.250914520965     1.348669269551    -0.645441601643     1.007825032070
           H         -0.191779124236     1.082437101204     1.043230176269     1.007825032070
           C         -0.295126725241     0.705306739038     0.033740331404    12.000000000000
           H         -0.254026453708    -1.346762710407     0.645598118593     1.007825032070
           H          0.189358846688    -1.082343754560    -1.042113835242     1.007825032070
           C          0.293270288945    -0.704749814360    -0.032899804259    12.000000000000
           H          1.935946953802    -0.025800157396     1.189103913135     1.007825032070
           H          2.379506294467    -0.368305763901    -0.479531299830     1.007825032070
           H          2.099558667735    -1.690936425454     0.646384909674     1.007825032070
           C          1.778790593311    -0.698786578896     0.356860652651    12.000000000000

  Running in c1 symmetry.

  Rotational constants: A =      0.77671  B =      0.12349  C =      0.11572 [cm^-1]
  Rotational constants: A =  23285.12373  B =   3702.22322  C =   3469.14979 [MHz]
  Nuclear repulsion =  131.416926843842731

  Charge       = 0
  Multiplicity = 1
  Electrons    = 34
  Nalpha       = 17
  Nbeta        = 17

  ==> Algorithm <==

  SCF Algorithm Type is DF.
  DIIS enabled.
  MOM disabled.
  Fractional occupation disabled.
  Guess Type is READ.
  Energy threshold   = 1.00e-10
  Density threshold  = 1.00e-10
  Integral threshold = 0.00e+00

  ==> Primary Basis <==

  Basis Set: AUG-CC-PVTZ
    Blend: AUG-CC-PVTZ
    Number of shells: 146
    Number of basis function: 414
    Number of Cartesian functions: 470
    Spherical Harmonics?: true
    Max angular momentum: 3

   => Loading Basis Set <=

    Name: (AUG-CC-PVTZ AUX)
    Role: JKFIT
    Keyword: DF_BASIS_SCF
    atoms 1-3, 5-6, 8-9, 11-13 entry H          line    69 file /cbio/jclab/home/chayas/anaconda/envs/py35/share/psi4/basis/aug-cc-pvtz-jkfit.gbs 
    atoms 4, 7, 10, 14         entry C          line   161 file /cbio/jclab/home/chayas/anaconda/envs/py35/share/psi4/basis/aug-cc-pvtz-jkfit.gbs 

  Reading orbitals from file 180, no projection.

  ==> Pre-Iterations <==

   -------------------------------------------------------
    Irrep   Nso     Nmo     Nalpha   Nbeta   Ndocc  Nsocc
   -------------------------------------------------------
     A        414     414       0       0       0       0
   -------------------------------------------------------
    Total     414     414      17      17      17       0
   -------------------------------------------------------

  ==> Integral Setup <==

  ==> DFJK: Density-Fitted J/K Matrices <==

    J tasked:                  Yes
    K tasked:                  Yes
    wK tasked:                  No
    OpenMP threads:              1
    Integrals threads:           1
    Memory (MB):               715
    Algorithm:                Core
    Integral Cache:           NONE
    Schwarz Cutoff:          1E-12
    Fitting Condition:       1E-12

   => Auxiliary Basis Set <=

  Basis Set: (AUG-CC-PVTZ AUX)
    Blend: AUG-CC-PVTZ-JKFIT
    Number of shells: 260
    Number of basis function: 876
    Number of Cartesian functions: 1074
    Spherical Harmonics?: true
    Max angular momentum: 4

  Minimum eigenvalue in the overlap matrix is 8.7034668102E-06.
  Using Symmetric Orthogonalization.

  SCF Guess: Orbitals guess was supplied from a previous computation.

  ==> Iterations <==

                           Total Energy        Delta E     RMS |[F,P]|

   @DF-RHF iter   0:  -157.27716080621877   -1.57277e+02   1.23809e-04 
   @DF-RHF iter   1:  -157.35377603081352   -7.66152e-02   5.15362e-05 
   @DF-RHF iter   2:  -157.35404686266685   -2.70832e-04   2.66744e-05 DIIS
   @DF-RHF iter   3:  -157.35410451500593   -5.76523e-05   2.85896e-06 DIIS
   @DF-RHF iter   4:  -157.35410595834327   -1.44334e-06   7.68962e-07 DIIS
   @DF-RHF iter   5:  -157.35410604620174   -8.78585e-08   2.56196e-07 DIIS
   @DF-RHF iter   6:  -157.35410605622204   -1.00203e-08   4.22578e-08 DIIS
   @DF-RHF iter   7:  -157.35410605662253   -4.00490e-10   6.12202e-09 DIIS
   @DF-RHF iter   8:  -157.35410605663222   -9.69180e-12   1.07290e-09 DIIS
   @DF-RHF iter   9:  -157.35410605663122    9.94760e-13   2.52921e-10 DIIS
   @DF-RHF iter  10:  -157.35410605663381   -2.58638e-12   5.83070e-11 DIIS

  ==> Post-Iterations <==

    Orbital Energies (a.u.)
    -----------------------

    Doubly Occupied:                                                      

       1A    -11.210343     2A    -11.209668     3A    -11.203740  
       4A    -11.203525     5A     -1.071083     6A     -0.979678  
       7A     -0.860118     8A     -0.789349     9A     -0.645055  
      10A     -0.584713    11A     -0.572295    12A     -0.572184  
      13A     -0.512315    14A     -0.500178    15A     -0.469760  
      16A     -0.465212    17A     -0.449051  

    Virtual:                                                              

      18A      0.032287    19A      0.037084    20A      0.039592  
      21A      0.040803    22A      0.057002    23A      0.058491  
      24A      0.059728    25A      0.061241    26A      0.081782  
      27A      0.083269    28A      0.098507    29A      0.112392  
      30A      0.123047    31A      0.130789    32A      0.136006  
      33A      0.141696    34A      0.143273    35A      0.146319  
      36A      0.148289    37A      0.159791    38A      0.161319  
      39A      0.167593    40A      0.170938    41A      0.202046  
      42A      0.209195    43A      0.211626    44A      0.229030  
      45A      0.246062    46A      0.248765    47A      0.251112  
      48A      0.268376    49A      0.274679    50A      0.281759  
      51A      0.283516    52A      0.315643    53A      0.318164  
      54A      0.330455    55A      0.336007    56A      0.341911  
      57A      0.349997    58A      0.357240    59A      0.357306  
      60A      0.361280    61A      0.373179    62A      0.373910  
      63A      0.383032    64A      0.386433    65A      0.389613  
      66A      0.391488    67A      0.396319    68A      0.401764  
      69A      0.405231    70A      0.412790    71A      0.421971  
      72A      0.428600    73A      0.441534    74A      0.446650  
      75A      0.452946    76A      0.459589    77A      0.462218  
      78A      0.463870    79A      0.472697    80A      0.479301  
      81A      0.485963    82A      0.492555    83A      0.499299  
      84A      0.503106    85A      0.507070    86A      0.512060  
      87A      0.519960    88A      0.532585    89A      0.533949  
      90A      0.537042    91A      0.546138    92A      0.560867  
      93A      0.567006    94A      0.572009    95A      0.586649  
      96A      0.591392    97A      0.602159    98A      0.610055  
      99A      0.622054   100A      0.629954   101A      0.638977  
     102A      0.659984   103A      0.678306   104A      0.683214  
     105A      0.701266   106A      0.709372   107A      0.762625  
     108A      0.779003   109A      0.796596   110A      0.813355  
     111A      0.822046   112A      0.827570   113A      0.834878  
     114A      0.843313   115A      0.848318   116A      0.858982  
     117A      0.864029   118A      0.866722   119A      0.884093  
     120A      0.890808   121A      0.895033   122A      0.900892  
     123A      0.904714   124A      0.919505   125A      0.924104  
     126A      0.929830   127A      0.935668   128A      0.941530  
     129A      0.942169   130A      0.957649   131A      0.964420  
     132A      0.970581   133A      0.977035   134A      0.985364  
     135A      0.993670   136A      1.013861   137A      1.018284  
     138A      1.033909   139A      1.047807   140A      1.064275  
     141A      1.071426   142A      1.078692   143A      1.091670  
     144A      1.108189   145A      1.110866   146A      1.121702  
     147A      1.128422   148A      1.130988   149A      1.140888  
     150A      1.155436   151A      1.160512   152A      1.162791  
     153A      1.173581   154A      1.190240   155A      1.196943  
     156A      1.217592   157A      1.220791   158A      1.229736  
     159A      1.243760   160A      1.252796   161A      1.257870  
     162A      1.261465   163A      1.270606   164A      1.277201  
     165A      1.291763   166A      1.299322   167A      1.315985  
     168A      1.323164   169A      1.338853   170A      1.349566  
     171A      1.357325   172A      1.384921   173A      1.397749  
     174A      1.419554   175A      1.427756   176A      1.438103  
     177A      1.457969   178A      1.480078   179A      1.497138  
     180A      1.503640   181A      1.517866   182A      1.524466  
     183A      1.551016   184A      1.558036   185A      1.561515  
     186A      1.587272   187A      1.591358   188A      1.614267  
     189A      1.627399   190A      1.639479   191A      1.645406  
     192A      1.649327   193A      1.673695   194A      1.690572  
     195A      1.692180   196A      1.699716   197A      1.709252  
     198A      1.717158   199A      1.731254   200A      1.740216  
     201A      1.745945   202A      1.758768   203A      1.765435  
     204A      1.773563   205A      1.782548   206A      1.792480  
     207A      1.794341   208A      1.805176   209A      1.818291  
     210A      1.843095   211A      1.862350   212A      1.866790  
     213A      1.885096   214A      1.900275   215A      1.912092  
     216A      1.922284   217A      1.953518   218A      1.970172  
     219A      1.978130   220A      1.987733   221A      1.992573  
     222A      2.003591   223A      2.028813   224A      2.035470  
     225A      2.041329   226A      2.061849   227A      2.088096  
     228A      2.098341   229A      2.118675   230A      2.140878  
     231A      2.155979   232A      2.183702   233A      2.192360  
     234A      2.208715   235A      2.237885   236A      2.249109  
     237A      2.258722   238A      2.273887   239A      2.294893  
     240A      2.299860   241A      2.325919   242A      2.328370  
     243A      2.339836   244A      2.346217   245A      2.363192  
     246A      2.371129   247A      2.420698   248A      2.441137  
     249A      2.467814   250A      2.478965   251A      2.508341  
     252A      2.543967   253A      2.603474   254A      2.618709  
     255A      2.640536   256A      2.661677   257A      2.728981  
     258A      2.897832   259A      2.933885   260A      3.026898  
     261A      3.240041   262A      3.245562   263A      3.293272  
     264A      3.379528   265A      3.396216   266A      3.425718  
     267A      3.451858   268A      3.459115   269A      3.465960  
     270A      3.484722   271A      3.521280   272A      3.542341  
     273A      3.570970   274A      3.578769   275A      3.600027  
     276A      3.607215   277A      3.635787   278A      3.658375  
     279A      3.679703   280A      3.686230   281A      3.713028  
     282A      3.722603   283A      3.730903   284A      3.743504  
     285A      3.753116   286A      3.767855   287A      3.779474  
     288A      3.797601   289A      3.809521   290A      3.820631  
     291A      3.847843   292A      3.857990   293A      3.875942  
     294A      3.882856   295A      3.911678   296A      3.921553  
     297A      3.940480   298A      3.948439   299A      3.970783  
     300A      3.987742   301A      3.997479   302A      4.006063  
     303A      4.013572   304A      4.014001   305A      4.044468  
     306A      4.050615   307A      4.062149   308A      4.077370  
     309A      4.123438   310A      4.178294   311A      4.191818  
     312A      4.206136   313A      4.221239   314A      4.226210  
     315A      4.237319   316A      4.264268   317A      4.265524  
     318A      4.280216   319A      4.298865   320A      4.320476  
     321A      4.330924   322A      4.364821   323A      4.369713  
     324A      4.399433   325A      4.416519   326A      4.422413  
     327A      4.514385   328A      4.531743   329A      4.565832  
     330A      4.575201   331A      4.618135   332A      4.649719  
     333A      4.665379   334A      4.681909   335A      4.705267  
     336A      4.718973   337A      4.724533   338A      4.736133  
     339A      4.763677   340A      4.776400   341A      4.787635  
     342A      4.837263   343A      4.853226   344A      4.867928  
     345A      4.873880   346A      4.899910   347A      4.927771  
     348A      4.939528   349A      4.952471   350A      4.998043  
     351A      5.027334   352A      5.045964   353A      5.063320  
     354A      5.079127   355A      5.107634   356A      5.153589  
     357A      5.162101   358A      5.179629   359A      5.189210  
     360A      5.227283   361A      5.229726   362A      5.248419  
     363A      5.252235   364A      5.288408   365A      5.297117  
     366A      5.326512   367A      5.372355   368A      5.386704  
     369A      5.415220   370A      5.431515   371A      5.435224  
     372A      5.453716   373A      5.470511   374A      5.489122  
     375A      5.554437   376A      5.569578   377A      5.600974  
     378A      5.614386   379A      5.652269   380A      5.656137  
     381A      5.694909   382A      5.732859   383A      5.737827  
     384A      5.751408   385A      5.812256   386A      5.815827  
     387A      5.871128   388A      5.881932   389A      5.922895  
     390A      5.996578   391A      6.064894   392A      6.127158  
     393A      6.136519   394A      6.160641   395A      6.204924  
     396A      6.225187   397A      6.232073   398A      6.270855  
     399A      6.279323   400A      6.324748   401A      6.367807  
     402A      6.404532   403A      6.550114   404A      6.561606  
     405A      6.736010   406A      6.779128   407A      6.827173  
     408A      6.843523   409A      6.854529   410A      6.987132  
     411A     17.974826   412A     18.188486   413A     18.503173  
     414A     18.844712  

    Final Occupation by Irrep:
              A 
    DOCC [    17 ]

  Energy converged.

  @DF-RHF Final Energy:  -157.35410605663381

   => Energetics <=

    Nuclear Repulsion Energy =            131.4169268438427309
    One-Electron Energy =                -470.9455326588382604
    Two-Electron Energy =                 182.1744997583617476
    DFT Exchange-Correlation Energy =       0.0000000000000000
    Empirical Dispersion Energy =           0.0000000000000000
    PCM Polarization Energy =               0.0000000000000000
    EFP Energy =                            0.0000000000000000
    Total Energy =                       -157.3541060566338103



Properties will be evaluated at   0.000000,   0.000000,   0.000000 Bohr

Properties computed using the SCF density matrix

  Nuclear Dipole Moment: (a.u.)
     X:     0.0044      Y:    -0.0000      Z:    -0.0000

  Electronic Dipole Moment: (a.u.)
     X:    -0.0043      Y:     0.0004      Z:    -0.0014

  Dipole Moment: (a.u.)
     X:     0.0001      Y:     0.0003      Z:    -0.0014     Total:     0.0014

  Dipole Moment: (Debye)
     X:     0.0002      Y:     0.0009      Z:    -0.0035     Total:     0.0036


*** tstop() called on gpu-1-11.local at Wed Jun 14 14:52:46 2017
Module time:
	user time   =      79.31 seconds =       1.32 minutes
	system time =       0.82 seconds =       0.01 minutes
	total time  =         81 seconds =       1.35 minutes
Total time:
	user time   =     558.77 seconds =       9.31 minutes
	system time =       5.23 seconds =       0.09 minutes
	total time  =        566 seconds =       9.43 minutes

  //>>>>>>>>>>>>>>>>>>>>>>>>>>>>>>>>>>>//
  //               DFMP2               //
  //<<<<<<<<<<<<<<<<<<<<<<<<<<<<<<<<<<<//

   => Loading Basis Set <=

    Name: (AUG-CC-PVTZ AUX)
    Role: RIFIT
    Keyword: DF_BASIS_MP2
    atoms 1-3, 5-6, 8-9, 11-13 entry H          line    29 file /cbio/jclab/home/chayas/anaconda/envs/py35/share/psi4/basis/aug-cc-pvtz-ri.gbs 
    atoms 4, 7, 10, 14         entry C          line   147 file /cbio/jclab/home/chayas/anaconda/envs/py35/share/psi4/basis/aug-cc-pvtz-ri.gbs 

	 --------------------------------------------------------
	                          DF-MP2                         
	      2nd-Order Density-Fitted Moller-Plesset Theory     
	              RMP2 Wavefunction,   1 Threads             
	                                                         
	        Rob Parrish, Justin Turney, Andy Simmonett,      
	           Ed Hohenstein, and C. David Sherrill          
	 --------------------------------------------------------

   => Auxiliary Basis Set <=

  Basis Set: (AUG-CC-PVTZ AUX)
    Blend: AUG-CC-PVTZ-RI
    Number of shells: 252
    Number of basis function: 884
    Number of Cartesian functions: 1094
    Spherical Harmonics?: true
    Max angular momentum: 4

	 --------------------------------------------------------
	                 NBF =   414, NAUX =   884
	 --------------------------------------------------------
	   CLASS    FOCC     OCC    AOCC    AVIR     VIR    FVIR
	   PAIRS       0      17      17     397     397       0
	 --------------------------------------------------------


         ------------------------------------------------------------
                                     CPHF                           
                                  Rob Parrish                       
         ------------------------------------------------------------

  ==> Geometry <==

    Molecular point group: c1
    Full point group: C1

    Geometry (in Angstrom), charge = 0, multiplicity = 1:

       Center              X                  Y                   Z               Mass       
    ------------   -----------------  -----------------  -----------------  -----------------
           H         -2.330288448439     0.059001510893     0.317463065176     1.007825032070
           H         -2.186863841232     1.699022873312    -0.307807017972     1.007825032070
           H         -1.887653424515     0.325005784887    -1.366894304904     1.007825032070
           C         -1.777326704153     0.698230684875    -0.357700518264    12.000000000000
           H          0.250914520965     1.348669269551    -0.645441601643     1.007825032070
           H         -0.191779124236     1.082437101204     1.043230176269     1.007825032070
           C         -0.295126725241     0.705306739038     0.033740331404    12.000000000000
           H         -0.254026453708    -1.346762710407     0.645598118593     1.007825032070
           H          0.189358846688    -1.082343754560    -1.042113835242     1.007825032070
           C          0.293270288945    -0.704749814360    -0.032899804259    12.000000000000
           H          1.935946953802    -0.025800157396     1.189103913135     1.007825032070
           H          2.379506294467    -0.368305763901    -0.479531299830     1.007825032070
           H          2.099558667735    -1.690936425454     0.646384909674     1.007825032070
           C          1.778790593311    -0.698786578896     0.356860652651    12.000000000000

  Nuclear repulsion =  131.416926843842731
  Reference energy  = -157.354106056633810

  ==> Basis Set <==

  Basis Set: AUG-CC-PVTZ
    Blend: AUG-CC-PVTZ
    Number of shells: 146
    Number of basis function: 414
    Number of Cartesian functions: 470
    Spherical Harmonics?: true
    Max angular momentum: 3

  ==> CGRSolver (by Rob Parrish) <==

   Number of roots    =         1
   Preconditioning    =    JACOBI
   Convergence cutoff =     1E-06
   Maximum iterations =       100

  ==> CPHFRHamiltonian (by Rob Parrish) <== 

  ==> DFJK: Density-Fitted J/K Matrices <==

    J tasked:                  Yes
    K tasked:                  Yes
    wK tasked:                  No
    OpenMP threads:              1
    Integrals threads:           1
    Memory (MB):               715
    Algorithm:                Core
    Integral Cache:           NONE
    Schwarz Cutoff:          1E-12
    Fitting Condition:       1E-12

   => Auxiliary Basis Set <=

  Basis Set: (AUG-CC-PVTZ AUX)
    Blend: AUG-CC-PVTZ-JKFIT
    Number of shells: 260
    Number of basis function: 876
    Number of Cartesian functions: 1074
    Spherical Harmonics?: true
    Max angular momentum: 4

  ==> CPHF Iterations <==

  => Iterations <=

             Iter  Converged  Remaining    Residual
  CGR           1          0          1   8.304E-02
  CGR           2          0          1   1.324E-02
  CGR           3          0          1   3.489E-03
  CGR           4          0          1   8.147E-04
  CGR           5          0          1   1.202E-04
  CGR           6          0          1   2.189E-05
  CGR           7          0          1   3.818E-06
  CGR           8          1          0   8.562E-07

    CGRSolver converged.

  ==> DFCorrGrad: Density-Fitted Correlated Gradients <==

    OpenMP threads:              1
    Integrals threads:           1
    Memory (MB):               715
    Schwarz Cutoff:          0E+00
    Fitting Condition:       1E-12

   => Auxiliary Basis Set <=

  Basis Set: (AUG-CC-PVTZ AUX)
    Blend: AUG-CC-PVTZ-JKFIT
    Number of shells: 260
    Number of basis function: 876
    Number of Cartesian functions: 1074
    Spherical Harmonics?: true
    Max angular momentum: 4

	-----------------------------------------------------------
	 ==================> DF-MP2 Energies <==================== 
	-----------------------------------------------------------
	 Reference Energy          =    -157.3541060566338103 [Eh]
	 Singles Energy            =      -0.0000000000000000 [Eh]
	 Same-Spin Energy          =      -0.1653449483234296 [Eh]
	 Opposite-Spin Energy      =      -0.6392924991474839 [Eh]
	 Correlation Energy        =      -0.8046374474709135 [Eh]
	 Total Energy              =    -158.1587435041047343 [Eh]
	-----------------------------------------------------------
	 ================> DF-SCS-MP2 Energies <================== 
	-----------------------------------------------------------
	 SCS Same-Spin Scale       =       0.3333333333333333 [-]
	 SCS Opposite-Spin Scale   =       1.2000000000000000 [-]
	 SCS Same-Spin Energy      =      -0.0551149827744765 [Eh]
	 SCS Opposite-Spin Energy  =      -0.7671509989769806 [Eh]
	 SCS Correlation Energy    =      -0.8222659817514572 [Eh]
	 SCS Total Energy          =    -158.1763720383852672 [Eh]
	-----------------------------------------------------------


  -Total Gradient:
     Atom            X                  Y                   Z
    ------   -----------------  -----------------  -----------------
       1        0.003430362817     0.002169438909    -0.001314244424
       2        0.003317558050    -0.002214074818     0.000481381981
       3        0.002232271125     0.001459663812     0.003412722470
       4       -0.013668267901    -0.003769935032    -0.004089489499
       5       -0.003472445567    -0.004086046378     0.000214354728
       6       -0.002347895664    -0.003197694605    -0.003192518899
       7        0.012480354029     0.015540547571     0.007319632496
       8        0.003619760839     0.003327770988    -0.000782791355
       9        0.002852878068     0.004130448610     0.002764343080
      10       -0.012146251711    -0.015601210458    -0.006480278458
      11       -0.002226948706    -0.001562897802    -0.003357471883
      12       -0.003551353330    -0.002091244679     0.001321365700
      13       -0.003450462988     0.002436371184    -0.000230161161
      14        0.012930440937     0.003458862698     0.003933155221


*** tstop() called on gpu-1-11.local at Wed Jun 14 14:59:04 2017
Module time:
	user time   =     454.12 seconds =       7.57 minutes
	system time =       3.52 seconds =       0.06 minutes
	total time  =        459 seconds =       7.65 minutes
Total time:
	user time   =     933.58 seconds =      15.56 minutes
	system time =       7.93 seconds =       0.13 minutes
	total time  =        944 seconds =      15.73 minutes

			-----------------------------------------
			 OPTKING 2.0: for geometry optimizations 
			  - R.A. King,  Bethel University        
			-----------------------------------------

	Previous internal coordinate definitions found.
	---Fragment 1 Geometry and Gradient---
	 H          -4.4036069782        0.1114966970        0.5999182505
	 H          -4.1325737498        3.2106879241       -0.5816709657
	 H          -3.5671480061        0.6141719250       -2.5830558889
	 C          -3.3586607195        1.3194647720       -0.6759560171
	 H           0.4741597274        2.5486155633       -1.2197078619
	 H          -0.3624100228        2.0455096773        1.9714193267
	 C          -0.5577086852        1.3328365765        0.0637599860
	 H          -0.4800404280       -2.5450126887        1.2200036360
	 H           0.3578363611       -2.0453332778       -1.9693097479
	 C           0.5542005290       -1.3317841413       -0.0621716199
	 H           3.6584095505       -0.0487552317        2.2470807394
	 H           4.4966152280       -0.6959970269       -0.9061828288
	 H           3.9675908819       -3.1954067522        1.2214904557
	 C           3.3614270691       -1.3205152594        0.6743689011
	             0.0034303628        0.0021694389       -0.0013142444
	             0.0033175580       -0.0022140748        0.0004813820
	             0.0022322711        0.0014596638        0.0034127225
	            -0.0136682679       -0.0037699350       -0.0040894895
	            -0.0034724456       -0.0040860464        0.0002143547
	            -0.0023478957       -0.0031976946       -0.0031925189
	             0.0124803540        0.0155405476        0.0073196325
	             0.0036197608        0.0033277710       -0.0007827914
	             0.0028528781        0.0041304486        0.0027643431
	            -0.0121462517       -0.0156012105       -0.0064802785
	            -0.0022269487       -0.0015628978       -0.0033574719
	            -0.0035513533       -0.0020912447        0.0013213657
	            -0.0034504630        0.0024363712       -0.0002301612
	             0.0129304409        0.0034588627        0.0039331552

	---Fragment 1 Intrafragment Coordinates---
	 - Coordinate -           - BOHR/RAD -       - ANG/DEG -
	 R(1,4)           =         2.044249	       1.081770
	 R(2,4)           =         2.045619	       1.082495
	 R(3,4)           =         2.044000	       1.081638
	 R(4,7)           =         2.897014	       1.533034
	 R(5,7)           =         2.046988	       1.083220
	 R(6,7)           =         2.045778	       1.082579
	 R(7,10)          =         2.890053	       1.529350
	 R(8,10)          =         2.045862	       1.082624
	 R(9,10)          =         2.045700	       1.082538
	 R(10,14)         =         2.902265	       1.535812
	 R(11,14)         =         2.044259	       1.081775
	 R(12,14)         =         2.043727	       1.081494
	 R(13,14)         =         2.044993	       1.082163
	 B(1,4,2)         =         1.900917	     108.914493
	 B(1,4,3)         =         1.903174	     109.043830
	 B(1,4,7)         =         1.915139	     109.729399
	 B(2,4,3)         =         1.900145	     108.870286
	 B(2,4,7)         =         1.928096	     110.471781
	 B(3,4,7)         =         1.916061	     109.782220
	 B(4,7,5)         =         1.907121	     109.269990
	 B(4,7,6)         =         1.909225	     109.390527
	 B(4,7,10)        =         1.935420	     110.891376
	 B(5,7,6)         =         1.906723	     109.247155
	 B(5,7,10)        =         1.903229	     109.046990
	 B(6,7,10)        =         1.901907	     108.971226
	 B(7,10,8)        =         1.901761	     108.962856
	 B(7,10,9)        =         1.902114	     108.983091
	 B(7,10,14)       =         1.936386	     110.946728
	 B(8,10,9)        =         1.905930	     109.201744
	 B(8,10,14)       =         1.909461	     109.404047
	 B(9,10,14)       =         1.907939	     109.316839
	 B(10,14,11)      =         1.915775	     109.765814
	 B(10,14,12)      =         1.920034	     110.009838
	 B(10,14,13)      =         1.929483	     110.551223
	 B(11,14,12)      =         1.900939	     108.915762
	 B(11,14,13)      =         1.898084	     108.752194
	 B(12,14,13)      =         1.899087	     108.809684
	 D(1,4,7,5)       =        -3.139711	    -179.892164
	 D(1,4,7,6)       =        -1.053082	     -60.337167
	 D(1,4,7,10)      =         1.045055	      59.877256
	 D(2,4,7,5)       =        -1.043614	     -59.794685
	 D(2,4,7,6)       =         1.043014	      59.760312
	 D(2,4,7,10)      =         3.141152	     179.974735
	 D(3,4,7,5)       =         1.052115	      60.281753
	 D(3,4,7,6)       =         3.138743	     179.836750
	 D(3,4,7,10)      =        -1.046304	     -59.948828
	 D(4,7,10,8)      =        -1.039891	     -59.581373
	 D(4,7,10,9)      =         1.038377	      59.494592
	 D(4,7,10,14)     =         3.140006	     179.909109
	 D(5,7,10,8)      =        -3.140625	    -179.944554
	 D(5,7,10,9)      =        -1.062357	     -60.868589
	 D(5,7,10,14)     =         1.039273	      59.545928
	 D(6,7,10,8)      =         1.062596	      60.882268
	 D(6,7,10,9)      =         3.140864	     179.958233
	 D(6,7,10,14)     =        -1.040692	     -59.627249
	 D(7,10,14,11)    =         0.700172	      40.116914
	 D(7,10,14,12)    =        -1.391299	     -79.715546
	 D(7,10,14,13)    =         2.794037	     160.086531
	 D(8,10,14,11)    =        -1.398545	     -80.130751
	 D(8,10,14,12)    =         2.793169	     160.036789
	 D(8,10,14,13)    =         0.695319	      39.838866
	 D(9,10,14,11)    =         2.798343	     160.333221
	 D(9,10,14,12)    =         0.706872	      40.500760
	 D(9,10,14,13)    =        -1.390978	     -79.697162

	Current energy   :      -158.1587435041

	Energy change for the previous step:
		Projected    :        -0.0041071557
		Actual       :        -0.0030382296

	Performing BFGS update.
	Previous computed or guess Hessian on step 1.
	Steps to be used in Hessian update: 1
	Adding user-defined constraint: Fragment 1; Coordinate 58:
		Value =     2.794037; Fixed value    =     2.792530
		Force =    -0.000791; Force constant =     0.525000
	Removing off-diagonal coupling between coordinate 58 and others.
	Taking RFO optimization step.
	Going to follow RFO solution 1.
	Using RFO vector 1.

	Determining step-restricting scale parameter for RS-RFO.
	Maximum step size allowed    0.10000

	 Iter      |step|        alpha        rfo_root  
	------------------------------------------------
	    0     0.18097       1.00000           1
	    1     0.14566       4.79160           1
	    2     0.11781      13.70819           1
	    3     0.10392      22.41722           1
	    4     0.10026      25.53318           1
	    5     0.10000      25.76900           1
	------------------------------------------------
	Norm of target step-size    0.10000
	Projected energy change by RFO approximation:        -0.0013007654

	Back-transformation to cartesian coordinates...
	Successfully converged to displaced geometry.

	--- Internal Coordinate Step in ANG or DEG, aJ/ANG or AJ/DEG ---
	 ---------------------------------------------------------------------------
	   Coordinate                Previous        Force       Change         New 
	   ----------                --------       ------       ------       ------
	    1 R(1,4)          =      1.081770     0.031766     0.005874     1.087644
	    2 R(2,4)          =      1.082495     0.027022     0.004768     1.087263
	    3 R(3,4)          =      1.081638     0.032259     0.005949     1.087588
	    4 R(4,7)          =      1.533034    -0.040608    -0.010853     1.522181
	    5 R(5,7)          =      1.083220     0.035523     0.006636     1.089855
	    6 R(6,7)          =      1.082579     0.035551     0.006644     1.089223
	    7 R(7,10)         =      1.529350    -0.039598    -0.009771     1.519579
	    8 R(8,10)         =      1.082624     0.035376     0.006585     1.089209
	    9 R(9,10)         =      1.082538     0.035358     0.006591     1.089128
	   10 R(10,14)        =      1.535812    -0.033055    -0.009333     1.526479
	   11 R(11,14)        =      1.081775     0.031957     0.005971     1.087746
	   12 R(12,14)        =      1.081494     0.029936     0.005468     1.086961
	   13 R(13,14)        =      1.082163     0.027337     0.004832     1.086995
	   14 B(1,4,2)        =    108.914493    -0.000155    -0.665198   108.249295
	   15 B(1,4,3)        =    109.043830    -0.000153    -0.802939   108.240891
	   16 B(1,4,7)        =    109.729399     0.000122     0.591932   110.321330
	   17 B(2,4,3)        =    108.870286    -0.000154    -0.652498   108.217789
	   18 B(2,4,7)        =    110.471781     0.000204     0.853115   111.324896
	   19 B(3,4,7)        =    109.782220     0.000126     0.609199   110.391419
	   20 B(4,7,5)        =    109.269990    -0.000027     0.136401   109.406391
	   21 B(4,7,6)        =    109.390527    -0.000022     0.129713   109.520241
	   22 B(4,7,10)       =    110.891376     0.000268     1.086213   111.977589
	   23 B(5,7,6)        =    109.247155    -0.000078    -1.117973   108.129182
	   24 B(5,7,10)       =    109.046990    -0.000062    -0.080981   108.966010
	   25 B(6,7,10)       =    108.971226    -0.000082    -0.211552   108.759674
	   26 B(7,10,8)       =    108.962856    -0.000082    -0.271647   108.691208
	   27 B(7,10,9)       =    108.983091    -0.000077    -0.079002   108.904089
	   28 B(7,10,14)      =    110.946728     0.000275     1.109498   112.056226
	   29 B(8,10,9)       =    109.201744    -0.000083    -1.155189   108.046554
	   30 B(8,10,14)      =    109.404047    -0.000014     0.159814   109.563861
	   31 B(9,10,14)      =    109.316839    -0.000024     0.172972   109.489810
	   32 B(10,14,11)     =    109.765814     0.000113     0.450154   110.215968
	   33 B(10,14,12)     =    110.009838     0.000150     0.757167   110.767005
	   34 B(10,14,13)     =    110.551223     0.000205     0.853881   111.405104
	   35 B(11,14,12)     =    108.915762    -0.000159    -0.801949   108.113813
	   36 B(11,14,13)     =    108.752194    -0.000170    -0.859483   107.892711
	   37 B(12,14,13)     =    108.809684    -0.000151    -0.477003   108.332681
	   38 D(1,4,7,5)      =   -179.892164     0.000011     0.506190  -179.385974
	   39 D(1,4,7,6)      =    -60.337167    -0.000017    -0.695243   -61.032410
	   40 D(1,4,7,10)     =     59.877256    -0.000005    -0.177716    59.699540
	   41 D(2,4,7,5)      =    -59.794685     0.000015     0.610915   -59.183769
	   42 D(2,4,7,6)      =     59.760312    -0.000014    -0.590518    59.169794
	   43 D(2,4,7,10)     =    179.974735    -0.000002    -0.072991   179.901744
	   44 D(3,4,7,5)      =     60.281753     0.000019     0.743834    61.025587
	   45 D(3,4,7,6)      =    179.836750    -0.000010    -0.457599   179.379151
	   46 D(3,4,7,10)     =    -59.948828     0.000002     0.059928   -59.888900
[...]
  CGR           3          0          1   3.547E-03
  CGR           4          0          1   8.173E-04
  CGR           5          0          1   1.201E-04
  CGR           6          0          1   2.241E-05
  CGR           7          0          1   4.002E-06
  CGR           8          1          0   9.339E-07

    CGRSolver converged.

  ==> DFCorrGrad: Density-Fitted Correlated Gradients <==

    OpenMP threads:              1
    Integrals threads:           1
    Memory (MB):               715
    Schwarz Cutoff:          0E+00
    Fitting Condition:       1E-12

   => Auxiliary Basis Set <=

  Basis Set: (AUG-CC-PVTZ AUX)
    Blend: AUG-CC-PVTZ-JKFIT
    Number of shells: 260
    Number of basis function: 876
    Number of Cartesian functions: 1074
    Spherical Harmonics?: true
    Max angular momentum: 4

	-----------------------------------------------------------
	 ==================> DF-MP2 Energies <==================== 
	-----------------------------------------------------------
	 Reference Energy          =    -157.3552492481159391 [Eh]
	 Singles Energy            =      -0.0000000000000000 [Eh]
	 Same-Spin Energy          =      -0.1654641899422961 [Eh]
	 Opposite-Spin Energy      =      -0.6393291954569803 [Eh]
	 Correlation Energy        =      -0.8047933853992764 [Eh]
	 Total Energy              =    -158.1600426335152179 [Eh]
	-----------------------------------------------------------
	 ================> DF-SCS-MP2 Energies <================== 
	-----------------------------------------------------------
	 SCS Same-Spin Scale       =       0.3333333333333333 [-]
	 SCS Opposite-Spin Scale   =       1.2000000000000000 [-]
	 SCS Same-Spin Energy      =      -0.0551547299807654 [Eh]
	 SCS Opposite-Spin Energy  =      -0.7671950345483763 [Eh]
	 SCS Correlation Energy    =      -0.8223497645291417 [Eh]
	 SCS Total Energy          =    -158.1775990126450893 [Eh]
	-----------------------------------------------------------


  -Total Gradient:
     Atom            X                  Y                   Z
    ------   -----------------  -----------------  -----------------
       1       -0.000007533766     0.000005339441    -0.000014564239
       2       -0.000008284893    -0.000005970219    -0.000002114121
       3        0.000005948703     0.000002314037     0.000005855784
       4        0.000005589241    -0.000002542583     0.000040265479
       5        0.000010556459    -0.000002096839     0.000010280613
       6       -0.000003961606     0.000005868498    -0.000021083833
       7       -0.000480356205    -0.000273196022     0.001884379042
       8        0.000014433307     0.000001850589    -0.000025148864
       9       -0.000006032648     0.000005161288     0.000000074459
      10        0.000496524592     0.000519649015    -0.001931652738
      11        0.000009157509    -0.000014145309    -0.000021278224
      12       -0.000006628697    -0.000008343520    -0.000003304101
      13       -0.000633687294     0.000549440784     0.002619115174
      14        0.000604275298    -0.000783329159    -0.002540824432


*** tstop() called on gpu-1-11.local at Wed Jun 14 15:29:02 2017
Module time:
	user time   =     452.60 seconds =       7.54 minutes
	system time =       3.50 seconds =       0.06 minutes
	total time  =        456 seconds =       7.60 minutes
Total time:
	user time   =    2717.93 seconds =      45.30 minutes
	system time =      22.01 seconds =       0.37 minutes
	total time  =       2742 seconds =      45.70 minutes

			-----------------------------------------
			 OPTKING 2.0: for geometry optimizations 
			  - R.A. King,  Bethel University        
			-----------------------------------------

	Previous internal coordinate definitions found.
	---Fragment 1 Geometry and Gradient---
	 H          -4.4452976419        0.1065634367        0.5391509599
	 H          -4.1441739269        3.2266929129       -0.5725337388
	 H          -3.5755531869        0.6662963879       -2.6175882439
	 C          -3.3437870966        1.3373817162       -0.6871552094
	 H           0.4936498548        2.5720433572       -1.1571153050
	 H          -0.3740140294        2.0437250807        1.9865581620
	 C          -0.5797924966        1.3098143253        0.0713255928
	 H          -0.4708511772       -2.5300765927        1.2669666815
	 H           0.2909624855       -2.1111233873       -1.9167772869
	 C           0.5670698120       -1.3149178402       -0.0358841392
	 H           3.7031332332       -0.0892707680        2.2501598532
	 H           4.5161026580       -0.6691727159       -0.9147148304
	 H           3.9970420775       -3.2070377756        1.1945751191
	 C           3.3572656209       -1.3330038298        0.6467853763
	            -0.0000075338        0.0000053394       -0.0000145642
	            -0.0000082849       -0.0000059702       -0.0000021141
	             0.0000059487        0.0000023140        0.0000058558
	             0.0000055892       -0.0000025426        0.0000402655
	             0.0000105565       -0.0000020968        0.0000102806
	            -0.0000039616        0.0000058685       -0.0000210838
	            -0.0004803562       -0.0002731960        0.0018843790
	             0.0000144333        0.0000018506       -0.0000251489
	            -0.0000060326        0.0000051613        0.0000000745
	             0.0004965246        0.0005196490       -0.0019316527
	             0.0000091575       -0.0000141453       -0.0000212782
	            -0.0000066287       -0.0000083435       -0.0000033041
	            -0.0006336873        0.0005494408        0.0026191152
	             0.0006042753       -0.0007833292       -0.0025408244

	---Fragment 1 Intrafragment Coordinates---
	 - Coordinate -           - BOHR/RAD -       - ANG/DEG -
	 R(1,4)           =         2.057199	       1.088623
	 R(2,4)           =         2.055056	       1.087489
	 R(3,4)           =         2.056853	       1.088440
	 R(4,7)           =         2.866308	       1.516785
	 R(5,7)           =         2.062660	       1.091513
	 R(6,7)           =         2.061331	       1.090809
	 R(7,10)          =         2.866358	       1.516811
	 R(8,10)          =         2.061871	       1.091095
	 R(9,10)          =         2.061053	       1.090662
	 R(10,14)         =         2.872552	       1.520089
	 R(11,14)         =         2.058472	       1.089296
	 R(12,14)         =         2.054716	       1.087309
	 R(13,14)         =         2.054602	       1.087249
	 B(1,4,2)         =         1.884156	     107.954194
	 B(1,4,3)         =         1.879609	     107.693653
	 B(1,4,7)         =         1.931395	     110.660762
	 B(2,4,3)         =         1.884323	     107.963763
	 B(2,4,7)         =         1.949432	     111.694197
	 B(3,4,7)         =         1.932507	     110.724521
	 B(4,7,5)         =         1.915967	     109.776836
	 B(4,7,6)         =         1.916336	     109.797976
	 B(4,7,10)        =         1.965721	     112.627530
	 B(5,7,6)         =         1.858263	     106.470650
	 B(5,7,10)        =         1.906949	     109.260105
	 B(6,7,10)        =         1.897406	     108.713366
	 B(7,10,8)        =         1.890855	     108.338005
	 B(7,10,9)        =         1.911635	     109.528645
	 B(7,10,14)       =         1.966564	     112.675818
	 B(8,10,9)        =         1.856193	     106.352002
	 B(8,10,14)       =         1.912484	     109.577263
	 B(9,10,14)       =         1.922577	     110.155564
	 B(10,14,11)      =         1.922515	     110.151970
	 B(10,14,12)      =         1.944621	     111.418590
	 B(10,14,13)      =         1.951490	     111.812121
	 B(11,14,12)      =         1.877563	     107.576418
	 B(11,14,13)      =         1.866184	     106.924485
	 B(12,14,13)      =         1.898301	     108.764656
	 D(1,4,7,5)       =        -3.127526	    -179.194040
	 D(1,4,7,6)       =        -1.090345	     -62.472171
	 D(1,4,7,10)      =         1.026687	      58.824825
	 D(2,4,7,5)       =        -1.027841	     -58.890937
	 D(2,4,7,6)       =         1.009340	      57.830931
	 D(2,4,7,10)      =         3.126372	     179.127928
	 D(3,4,7,5)       =         1.072815	      61.467775
	 D(3,4,7,6)       =         3.109996	     178.189643
	 D(3,4,7,10)      =        -1.056157	     -60.513360
	 D(4,7,10,8)      =        -1.053097	     -60.338037
	 D(4,7,10,9)      =         0.964701	      55.273296
	 D(4,7,10,14)     =         3.111195	     178.258364
	 D(5,7,10,8)      =         3.096024	     177.389131
	 D(5,7,10,9)      =        -1.169362	     -66.999535
	 D(5,7,10,14)     =         0.977132	      55.985532
	 D(6,7,10,8)      =         1.074682	      61.574720
	 D(6,7,10,9)      =         3.092480	     177.186054
	 D(6,7,10,14)     =        -1.044211	     -59.828879
	 D(7,10,14,11)    =         0.725645	      41.576404
	 D(7,10,14,12)    =        -1.356652	     -77.730459
	 D(7,10,14,13)    =         2.798096	     160.319112
	 D(8,10,14,11)    =        -1.380907	     -79.120116
	 D(8,10,14,12)    =         2.819981	     161.573021
	 D(8,10,14,13)    =         0.691545	      39.622592
	 D(9,10,14,11)    =         2.866015	     164.210565
	 D(9,10,14,12)    =         0.783717	      44.903702
	 D(9,10,14,13)    =        -1.344719	     -77.046726

	Current energy   :      -158.1600426335

	Energy change for the previous step:
		Projected    :        -0.0000065230
		Actual       :        -0.0000006977

	Performing BFGS update.
	Previous computed or guess Hessian on step 1.
	Steps to be used in Hessian update: 5 4
	Adding user-defined constraint: Fragment 1; Coordinate 58:
		Value =     2.798096; Fixed value    =     2.792530
		Force =    -0.003479; Force constant =     0.625000
	Removing off-diagonal coupling between coordinate 58 and others.
	Taking RFO optimization step.
	Going to follow RFO solution 1.
	Rejecting RFO root 1 because normalization gives large value.
	Using RFO vector 2.
	Norm of target step-size    0.00187
	Projected energy change by RFO approximation:        -0.0000000077

	Back-transformation to cartesian coordinates...
	Successfully converged to displaced geometry.

	--- Internal Coordinate Step in ANG or DEG, aJ/ANG or AJ/DEG ---
	 ---------------------------------------------------------------------------
	   Coordinate                Previous        Force       Change         New 
	   ----------                --------       ------       ------       ------
	    1 R(1,4)          =      1.088623     0.000065     0.000002     1.088625
	    2 R(2,4)          =      1.087489     0.000020     0.000000     1.087489
	    3 R(3,4)          =      1.088440     0.000057    -0.000009     1.088431
	    4 R(4,7)          =      1.516785     0.000030     0.000083     1.516868
	    5 R(5,7)          =      1.091513     0.000016    -0.000008     1.091505
	    6 R(6,7)          =      1.090809     0.000147     0.000015     1.090825
	    7 R(7,10)         =      1.516811    -0.000123     0.000021     1.516832
	    8 R(8,10)         =      1.091095     0.000200     0.000028     1.091123
	    9 R(9,10)         =      1.090662     0.000010    -0.000009     1.090653
	   10 R(10,14)        =      1.520089     0.000097     0.000101     1.520190
	   11 R(11,14)        =      1.089296     0.000194     0.000036     1.089333
	   12 R(12,14)        =      1.087309     0.000032    -0.000011     1.087298
	   13 R(13,14)        =      1.087249     0.000001    -0.000005     1.087243
	   14 B(1,4,2)        =    107.954194     0.000001     0.003354   107.957548
	   15 B(1,4,3)        =    107.693653     0.000000     0.008488   107.702141
	   16 B(1,4,7)        =    110.660762    -0.000002    -0.011458   110.649304
	   17 B(2,4,3)        =    107.963763     0.000000     0.005672   107.969434
	   18 B(2,4,7)        =    111.694197    -0.000001    -0.005123   111.689075
	   19 B(3,4,7)        =    110.724521     0.000001     0.000021   110.724542
	   20 B(4,7,5)        =    109.776836    -0.000001    -0.010973   109.765863
	   21 B(4,7,6)        =    109.797976     0.000001     0.000444   109.798420
	   22 B(4,7,10)       =    112.627530     0.000000    -0.000413   112.627117
	   23 B(5,7,6)        =    106.470650     0.000000     0.017600   106.488250
	   24 B(5,7,10)       =    109.260105     0.000000     0.000246   109.260351
	   25 B(6,7,10)       =    108.713366    -0.000001    -0.005802   108.707564
	   26 B(7,10,8)       =    108.338005    -0.000003    -0.014789   108.323216
	   27 B(7,10,9)       =    109.528645     0.000003     0.013916   109.542561
	   28 B(7,10,14)      =    112.675818    -0.000001    -0.008497   112.667320
	   29 B(8,10,9)       =    106.352002     0.000000     0.016871   106.368873
	   30 B(8,10,14)      =    109.577263     0.000001    -0.008248   109.569015
	   31 B(9,10,14)      =    110.155564    -0.000000     0.001918   110.157482
	   32 B(10,14,11)     =    110.151970    -0.000003    -0.016357   110.135613
	   33 B(10,14,12)     =    111.418590     0.000002     0.002939   111.421528
	   34 B(10,14,13)     =    111.812121    -0.000000     0.000736   111.812857
	   35 B(11,14,12)     =    107.576418     0.000000     0.003990   107.580408
	   36 B(11,14,13)     =    106.924485    -0.000002     0.001223   106.925709
	   37 B(12,14,13)     =    108.764656     0.000002     0.007728   108.772384
	   38 D(1,4,7,5)      =   -179.194040     0.000000    -0.004733  -179.198773
	   39 D(1,4,7,6)      =    -62.472171     0.000000     0.010459   -62.461712
	   40 D(1,4,7,10)     =     58.824825     0.000000     0.003089    58.827914
	   41 D(2,4,7,5)      =    -58.890937    -0.000000    -0.011714   -58.902651
	   42 D(2,4,7,6)      =     57.830931     0.000000     0.003478    57.834409
	   43 D(2,4,7,10)     =    179.127928    -0.000000    -0.003892   179.124036
	   44 D(3,4,7,5)      =     61.467775     0.000000    -0.007945    61.459830
	   45 D(3,4,7,6)      =    178.189643     0.000000     0.007247   178.196891
	   46 D(3,4,7,10)     =    -60.513360     0.000000    -0.000123   -60.513483
	   47 D(4,7,10,8)     =    -60.338037    -0.000000    -0.006553   -60.344591
	   48 D(4,7,10,9)     =     55.273296    -0.000000     0.012826    55.286122
	   49 D(4,7,10,14)    =    178.258364     0.000000     0.019531   178.277894
	   50 D(5,7,10,8)     =    177.389131    -0.000000     0.007565   177.396696
	   51 D(5,7,10,9)     =    -66.999535     0.000000     0.026944   -66.972591
	   52 D(5,7,10,14)    =     55.985532     0.000000     0.033649    56.019181
	   53 D(6,7,10,8)     =     61.574720    -0.000000    -0.010335    61.564385
	   54 D(6,7,10,9)     =    177.186054    -0.000000     0.009044   177.195098
	   55 D(6,7,10,14)    =    -59.828879     0.000000     0.015749   -59.813130
	   56 D(7,10,14,11)   =     41.576404    -0.000001     0.008980    41.585384
	   57 D(7,10,14,12)   =    -77.730459    -0.000000     0.012832   -77.717627
	   58 D(7,10,14,13)   =    160.319112    -0.000001     0.000225   160.319337
	   59 D(8,10,14,11)   =    -79.120116     0.000000     0.039121   -79.080995
	   60 D(8,10,14,12)   =    161.573021     0.000000     0.042973   161.615994
	   61 D(8,10,14,13)   =     39.622592    -0.000001     0.030366    39.652958
	   62 D(9,10,14,11)   =    164.210565     0.000000     0.022384   164.232950
	   63 D(9,10,14,12)   =     44.903702     0.000000     0.026236    44.929939
	   64 D(9,10,14,13)   =    -77.046726    -0.000001     0.013629   -77.033097
	 ---------------------------------------------------------------------------
	Successfully symmetrized geometry.
	 Forces used to impose fixed constraints are not included.
	  Forces zeroed: 58 

  ==> Convergence Check <==

  Measures of convergence in internal coordinates in au.
  Criteria marked as inactive (o), active & met (*), and active & unmet ( ).
  ---------------------------------------------------------------------------------------------
   Step     Total Energy     Delta E     MAX Force     RMS Force      MAX Disp      RMS Disp   
  ---------------------------------------------------------------------------------------------
    Convergence Criteria    1.00e-06 *    3.00e-04 *             o    1.20e-03 *             o
  ---------------------------------------------------------------------------------------------
      6    -158.16004263   -6.98e-07 *    4.52e-05 *    1.60e-05 o    7.50e-04 *    2.33e-04 o  ~
  ---------------------------------------------------------------------------------------------


  **** Optimization is complete! (in 6 steps) ****

  ==> Optimization Summary <==

  Measures of convergence in internal coordinates in au.
  --------------------------------------------------------------------------------------------------------------- ~
   Step         Total Energy             Delta E       MAX Force       RMS Force        MAX Disp        RMS Disp  ~
  --------------------------------------------------------------------------------------------------------------- ~
      1    -158.155705274543   -158.155705274543      0.01286678      0.00560510      0.02517273      0.01250700  ~
      2    -158.158743504105     -0.003038229562      0.00492895      0.00227102      0.03039854      0.01252156  ~
      3    -158.159767889760     -0.001024385655      0.00165101      0.00064205      0.04203559      0.01251947  ~
      4    -158.160014007592     -0.000246117832      0.00071798      0.00018024      0.03445720      0.01085286  ~
      5    -158.160041935849     -0.000027928256      0.00010080      0.00003681      0.00486078      0.00186638  ~
      6    -158.160042633515     -0.000000697667      0.00008323      0.00001910      0.00075002      0.00023346  ~
  --------------------------------------------------------------------------------------------------------------- ~

	Writing optimization data to binary file.
	Final energy is   -158.1600426335152
	Final (previous) structure:
	Cartesian Geometry (in Angstrom)
	    H    -2.3523501975   0.0563909420   0.2853064000
	    H    -2.1930023905   1.7074923486  -0.3029718057
	    H    -1.8921012546   0.3525888627  -1.3851680402
	    C    -1.7694559219   0.7077119234  -0.3636268756
	    H     0.2612282522   1.3610667241  -0.6123190471
	    H    -0.1979197000   1.0814927333   1.0512413029
	    C    -0.3068129749   0.6931238884   0.0377438781
	    H    -0.2491637116  -1.3388588688   0.6704498919
	    H     0.1539707159  -1.1171583811  -1.0143148542
	    C     0.3000804202  -0.6958245522  -0.0189890686
	    H     1.9596137074  -0.0472400558   1.1907333100
	    H     2.3898185983  -0.3541109499  -0.4840462406
	    H     2.1151435692  -1.6970912980   0.6321419270
	    C     1.7765884498  -0.7053952457   0.3422640800
	Saving final (previous) structure.
			--------------------------
			 OPTKING Finished Execution 
			--------------------------

    Final optimized geometry and variables:
    Molecular point group: c1
    Full point group: C1

    Geometry (in Angstrom), charge = 0, multiplicity = 1:

    H           -2.352350197469     0.056390941993     0.285306399979
    H           -2.193002390529     1.707492348612    -0.302971805741
    H           -1.892101254628     0.352588862666    -1.385168040154
    C           -1.769455921915     0.707711923392    -0.363626875592
    H            0.261228252179     1.361066724144    -0.612319047134
    H           -0.197919700035     1.081492733347     1.051241302859
    C           -0.306812974932     0.693123888408     0.037743878121
    H           -0.249163711622    -1.338858868838     0.670449891875
    H            0.153970715868    -1.117158381101    -1.014314854170
    C            0.300080420191    -0.695824552218    -0.018989068630
    H            1.959613707357    -0.047240055840     1.190733309974
    H            2.389818598256    -0.354110949890    -0.484046240616
    H            2.115143569174    -1.697091297951     0.632141926984
    C            1.776588449779    -0.705395245719     0.342264079988

	Cleaning optimization helper files.

*** Psi4 exiting successfully. Buy a developer a beer!
