
    -----------------------------------------------------------------------
          Psi4: An Open-Source Ab Initio Electronic Structure Package
                               Psi4 1.1 release

                         Git: Rev {HEAD} add49b9 


    R. M. Parrish, L. A. Burns, D. G. A. Smith, A. C. Simmonett,
    A. E. DePrince III, E. G. Hohenstein, U. Bozkaya, A. Yu. Sokolov,
    R. Di Remigio, R. M. Richard, J. F. Gonthier, A. M. James,
    H. R. McAlexander, A. Kumar, M. Saitow, X. Wang, B. P. Pritchard,
    P. Verma, H. F. Schaefer III, K. Patkowski, R. A. King, E. F. Valeev,
    F. A. Evangelista, J. M. Turney, T. D. Crawford, and C. D. Sherrill,
    J. Chem. Theory Comput. in press (2017).
    (doi: 10.1021/acs.jctc.7b00174)

    -----------------------------------------------------------------------


    Psi4 started on: Wednesday, 14 June 2017 02:43PM

    Process ID:   6212
    PSIDATADIR: /cbio/jclab/home/chayas/anaconda/envs/py35/share/psi4
    Memory:     500.0 MiB
    Threads:    1
    
  ==> Input File <==

--------------------------------------------------------------------------

memory 1000 mb

molecule butane {
  symmetry C1
  0 1 
  H      1.604   0.760   -8.260
  H      1.745   2.388   -8.880
  H      2.043   1.024   -9.930
  C      2.142   1.395   -8.932
  H      4.169   2.051   -9.210
  H      3.731   1.788   -7.539
  C      3.631   1.416   -8.537
  H      3.665   -0.647   -7.940
  H      4.104   -0.384   -9.610
  C      4.203   -0.012   -8.612
  H      5.864   0.801   -7.520
  H      6.289   0.166   -9.091
  H      5.955   -0.926   -7.769
  C      5.691   0.009   -8.218
  units Angstrom
}

dih_string = "7 10 14 13 150"
set optking fixed_dihedral = $dih_string

optimize('MP2/aug-cc-pvtz')
--------------------------------------------------------------------------

  Memory set to 953.674 MiB by Python driver.
gradient() will perform analytic gradient computation.

*** tstart() called on gpu-2-7.local
*** at Wed Jun 14 14:43:20 2017

    SCF Algorithm Type (re)set to DF.

*** tstart() called on gpu-2-7.local
*** at Wed Jun 14 14:43:20 2017

   => Loading Basis Set <=

    Name: AUG-CC-PVTZ
    Role: ORBITAL
    Keyword: BASIS
    atoms 1-3, 5-6, 8-9, 11-13 entry H          line    34 file /cbio/jclab/home/chayas/anaconda/envs/py35/share/psi4/basis/aug-cc-pvtz.gbs 
    atoms 4, 7, 10, 14         entry C          line   221 file /cbio/jclab/home/chayas/anaconda/envs/py35/share/psi4/basis/aug-cc-pvtz.gbs 


         ---------------------------------------------------------
                                   SCF
            by Justin Turney, Rob Parrish, and Andy Simmonett
                              RHF Reference
                        1 Threads,    953 MiB Core
         ---------------------------------------------------------

  ==> Geometry <==

    Molecular point group: c1
    Full point group: C1

    Geometry (in Angstrom), charge = 0, multiplicity = 1:

       Center              X                  Y                   Z               Mass       
    ------------   -----------------  -----------------  -----------------  -----------------
           H         -2.312776029323     0.057982647118     0.314776029323     1.007825032070
           H         -2.171776029323     1.685982647118    -0.305223970677     1.007825032070
           H         -1.873776029323     0.321982647118    -1.355223970677     1.007825032070
           C         -1.774776029323     0.692982647118    -0.357223970677    12.000000000000
           H          0.252223970677     1.348982647118    -0.635223970677     1.007825032070
           H         -0.185776029323     1.085982647118     1.035776029323     1.007825032070
           C         -0.285776029323     0.713982647118     0.037776029323    12.000000000000
           H         -0.251776029323    -1.349017352882     0.634776029323     1.007825032070
           H          0.187223970677    -1.086017352882    -1.035223970677     1.007825032070
           C          0.286223970677    -0.714017352882    -0.037223970677    12.000000000000
           H          1.947223970677     0.098982647118     1.054776029323     1.007825032070
           H          2.372223970677    -0.536017352882    -0.516223970677     1.007825032070
           H          2.038223970677    -1.628017352882     0.805776029323     1.007825032070
           C          1.774223970677    -0.693017352882     0.356776029323    12.000000000000

  Running in c1 symmetry.

  Rotational constants: A =      0.76952  B =      0.12464  C =      0.11638 [cm^-1]
  Rotational constants: A =  23069.72365  B =   3736.74086  C =   3488.97735 [MHz]
  Nuclear repulsion =  131.836137605005973

  Charge       = 0
  Multiplicity = 1
  Electrons    = 34
  Nalpha       = 17
  Nbeta        = 17

  ==> Algorithm <==

  SCF Algorithm Type is DF.
  DIIS enabled.
  MOM disabled.
  Fractional occupation disabled.
  Guess Type is SAD.
  Energy threshold   = 1.00e-10
  Density threshold  = 1.00e-10
  Integral threshold = 0.00e+00

  ==> Primary Basis <==

  Basis Set: AUG-CC-PVTZ
    Blend: AUG-CC-PVTZ
    Number of shells: 146
    Number of basis function: 414
    Number of Cartesian functions: 470
    Spherical Harmonics?: true
    Max angular momentum: 3

   => Loading Basis Set <=

    Name: (AUG-CC-PVTZ AUX)
    Role: JKFIT
    Keyword: DF_BASIS_SCF
    atoms 1-3, 5-6, 8-9, 11-13 entry H          line    69 file /cbio/jclab/home/chayas/anaconda/envs/py35/share/psi4/basis/aug-cc-pvtz-jkfit.gbs 
    atoms 4, 7, 10, 14         entry C          line   161 file /cbio/jclab/home/chayas/anaconda/envs/py35/share/psi4/basis/aug-cc-pvtz-jkfit.gbs 

  ==> Pre-Iterations <==

   -------------------------------------------------------
    Irrep   Nso     Nmo     Nalpha   Nbeta   Ndocc  Nsocc
   -------------------------------------------------------
     A        414     414       0       0       0       0
   -------------------------------------------------------
    Total     414     414      17      17      17       0
   -------------------------------------------------------

  ==> Integral Setup <==

  ==> DFJK: Density-Fitted J/K Matrices <==

    J tasked:                  Yes
    K tasked:                  Yes
    wK tasked:                  No
    OpenMP threads:              1
    Integrals threads:           1
    Memory (MB):               715
    Algorithm:                Core
    Integral Cache:           NONE
    Schwarz Cutoff:          1E-12
    Fitting Condition:       1E-12

   => Auxiliary Basis Set <=

  Basis Set: (AUG-CC-PVTZ AUX)
    Blend: AUG-CC-PVTZ-JKFIT
    Number of shells: 260
    Number of basis function: 876
    Number of Cartesian functions: 1074
    Spherical Harmonics?: true
    Max angular momentum: 4

  Minimum eigenvalue in the overlap matrix is 8.5615947767E-06.
  Using Symmetric Orthogonalization.

  SCF Guess: Superposition of Atomic Densities via on-the-fly atomic UHF.

  ==> Iterations <==

                           Total Energy        Delta E     RMS |[F,P]|

   @DF-RHF iter   0:  -159.15056662617212   -1.59151e+02   9.76270e-03 
   @DF-RHF iter   1:  -157.25466896081031    1.89590e+00   8.02304e-04 
   @DF-RHF iter   2:  -157.34062270936977   -8.59537e-02   2.30479e-04 DIIS
   @DF-RHF iter   3:  -157.34925536507006   -8.63266e-03   6.98010e-05 DIIS
   @DF-RHF iter   4:  -157.34995335005499   -6.97985e-04   1.85411e-05 DIIS
   @DF-RHF iter   5:  -157.35000568861878   -5.23386e-05   4.24554e-06 DIIS
   @DF-RHF iter   6:  -157.35000894673615   -3.25812e-06   8.52818e-07 DIIS
   @DF-RHF iter   7:  -157.35000907925107   -1.32515e-07   2.43420e-07 DIIS
   @DF-RHF iter   8:  -157.35000908817634   -8.92527e-09   4.67500e-08 DIIS
   @DF-RHF iter   9:  -157.35000908862571   -4.49376e-10   1.17881e-08 DIIS
   @DF-RHF iter  10:  -157.35000908865706   -3.13491e-11   2.84781e-09 DIIS
   @DF-RHF iter  11:  -157.35000908865734   -2.84217e-13   5.33564e-10 DIIS
   @DF-RHF iter  12:  -157.35000908865663    7.10543e-13   1.26910e-10 DIIS
   @DF-RHF iter  13:  -157.35000908865703   -3.97904e-13   3.94191e-11 DIIS

  ==> Post-Iterations <==

    Orbital Energies (a.u.)
    -----------------------

    Doubly Occupied:                                                      

       1A    -11.207267     2A    -11.205897     3A    -11.198537  
       4A    -11.197740     5A     -1.070721     6A     -0.981050  
       7A     -0.861354     8A     -0.795245     9A     -0.647003  
      10A     -0.587488    11A     -0.576411    12A     -0.571171  
      13A     -0.513146    14A     -0.504040    15A     -0.474213  
      16A     -0.468674    17A     -0.441051  

    Virtual:                                                              

      18A      0.032303    19A      0.037460    20A      0.039436  
      21A      0.040606    22A      0.057682    23A      0.058560  
      24A      0.060005    25A      0.060933    26A      0.080242  
      27A      0.082824    28A      0.100555    29A      0.112606  
      30A      0.122955    31A      0.130610    32A      0.137206  
      33A      0.142121    34A      0.142672    35A      0.145908  
      36A      0.148329    37A      0.160207    38A      0.163760  
      39A      0.166567    40A      0.171484    41A      0.201563  
      42A      0.205522    43A      0.212825    44A      0.228858  
      45A      0.244216    46A      0.249845    47A      0.253627  
      48A      0.268705    49A      0.278347    50A      0.283187  
      51A      0.286720    52A      0.313685    53A      0.318379  
      54A      0.330043    55A      0.337574    56A      0.345231  
      57A      0.354564    58A      0.358192    59A      0.358405  
      60A      0.365476    61A      0.372461    62A      0.373206  
      63A      0.381410    64A      0.386585    65A      0.390464  
      66A      0.391241    67A      0.398029    68A      0.401757  
      69A      0.405993    70A      0.412045    71A      0.419227  
      72A      0.430009    73A      0.443510    74A      0.449250  
      75A      0.452017    76A      0.461940    77A      0.462151  
      78A      0.464925    79A      0.472927    80A      0.485411  
      81A      0.488346    82A      0.496969    83A      0.501701  
      84A      0.505719    85A      0.514132    86A      0.515758  
      87A      0.519551    88A      0.532123    89A      0.536927  
      90A      0.542704    91A      0.548549    92A      0.555687  
      93A      0.569383    94A      0.572645    95A      0.581017  
      96A      0.590600    97A      0.607534    98A      0.609490  
      99A      0.611976   100A      0.633887   101A      0.640548  
     102A      0.660029   103A      0.678280   104A      0.682347  
     105A      0.698368   106A      0.719471   107A      0.760785  
     108A      0.776903   109A      0.799047   110A      0.812251  
     111A      0.820552   112A      0.828244   113A      0.835759  
     114A      0.846159   115A      0.848018   116A      0.860579  
     117A      0.867459   118A      0.875343   119A      0.881457  
     120A      0.889714   121A      0.895794   122A      0.903506  
     123A      0.910423   124A      0.922226   125A      0.926932  
     126A      0.931084   127A      0.933850   128A      0.937429  
     129A      0.946231   130A      0.962548   131A      0.963362  
     132A      0.973848   133A      0.979385   134A      0.987772  
     135A      0.994852   136A      1.017540   137A      1.026326  
     138A      1.032924   139A      1.047527   140A      1.068498  
     141A      1.081540   142A      1.084387   143A      1.089722  
     144A      1.106244   145A      1.111561   146A      1.117745  
     147A      1.126560   148A      1.135436   149A      1.148757  
     150A      1.155460   151A      1.159037   152A      1.173283  
     153A      1.179713   154A      1.190366   155A      1.200110  
     156A      1.218737   157A      1.226829   158A      1.234141  
     159A      1.243078   160A      1.250357   161A      1.262260  
     162A      1.268608   163A      1.274895   164A      1.281424  
     165A      1.298152   166A      1.304841   167A      1.317655  
     168A      1.325868   169A      1.339166   170A      1.358757  
     171A      1.370491   172A      1.388835   173A      1.407204  
     174A      1.416898   175A      1.431731   176A      1.445506  
     177A      1.461538   178A      1.480945   179A      1.501041  
     180A      1.510980   181A      1.521872   182A      1.524568  
     183A      1.538510   184A      1.555942   185A      1.569239  
     186A      1.584931   187A      1.598618   188A      1.611808  
     189A      1.636717   190A      1.643126   191A      1.652505  
     192A      1.661420   193A      1.674165   194A      1.694091  
     195A      1.695736   196A      1.700540   197A      1.713061  
     198A      1.719593   199A      1.731231   200A      1.741906  
     201A      1.745377   202A      1.759611   203A      1.765655  
     204A      1.772681   205A      1.780739   206A      1.787146  
     207A      1.799589   208A      1.808611   209A      1.822003  
     210A      1.857317   211A      1.870460   212A      1.873667  
     213A      1.891259   214A      1.904727   215A      1.917344  
     216A      1.929722   217A      1.962505   218A      1.970796  
     219A      1.992049   220A      2.000001   221A      2.002214  
     222A      2.017642   223A      2.030658   224A      2.041974  
     225A      2.047326   226A      2.063193   227A      2.086721  
     228A      2.092854   229A      2.109024   230A      2.159767  
     231A      2.169625   232A      2.193396   233A      2.198526  
     234A      2.204254   235A      2.233732   236A      2.260512  
     237A      2.266892   238A      2.285172   239A      2.293122  
     240A      2.309511   241A      2.331615   242A      2.339404  
     243A      2.341116   244A      2.365014   245A      2.367991  
     246A      2.378040   247A      2.413264   248A      2.444963  
     249A      2.462608   250A      2.481072   251A      2.498023  
     252A      2.551668   253A      2.602548   254A      2.612855  
     255A      2.628869   256A      2.666994   257A      2.755827  
     258A      2.889059   259A      2.950433   260A      3.015101  
     261A      3.224720   262A      3.247168   263A      3.310710  
     264A      3.360410   265A      3.392963   266A      3.424375  
     267A      3.445024   268A      3.461657   269A      3.465018  
     270A      3.487019   271A      3.528612   272A      3.556183  
     273A      3.565324   274A      3.576757   275A      3.597940  
     276A      3.605858   277A      3.629542   278A      3.668668  
     279A      3.684571   280A      3.695579   281A      3.702466  
     282A      3.712286   283A      3.738606   284A      3.742812  
     285A      3.760020   286A      3.775003   287A      3.780019  
     288A      3.798542   289A      3.822807   290A      3.830288  
     291A      3.845683   292A      3.868949   293A      3.877699  
     294A      3.887034   295A      3.912432   296A      3.923983  
     297A      3.953746   298A      3.972126   299A      3.976852  
     300A      3.989381   301A      4.010551   302A      4.016768  
     303A      4.026666   304A      4.028038   305A      4.051714  
     306A      4.062032   307A      4.077196   308A      4.089412  
     309A      4.135693   310A      4.170110   311A      4.190956  
     312A      4.202600   313A      4.231508   314A      4.245090  
     315A      4.251379   316A      4.274017   317A      4.285982  
     318A      4.296155   319A      4.320986   320A      4.328261  
     321A      4.342988   322A      4.379556   323A      4.383821  
     324A      4.412688   325A      4.443780   326A      4.454283  
     327A      4.521232   328A      4.545525   329A      4.571398  
     330A      4.590217   331A      4.619358   332A      4.664297  
     333A      4.676430   334A      4.692167   335A      4.714895  
     336A      4.732398   337A      4.742958   338A      4.751075  
     339A      4.774050   340A      4.789075   341A      4.809730  
     342A      4.866786   343A      4.869631   344A      4.887120  
     345A      4.893260   346A      4.933977   347A      4.948293  
     348A      4.960769   349A      4.982923   350A      5.009527  
     351A      5.042180   352A      5.065016   353A      5.082977  
     354A      5.100740   355A      5.135527   356A      5.161159  
     357A      5.173001   358A      5.191609   359A      5.221885  
     360A      5.235387   361A      5.252626   362A      5.274853  
     363A      5.283812   364A      5.311964   365A      5.333185  
     366A      5.334897   367A      5.390442   368A      5.391532  
     369A      5.437334   370A      5.457209   371A      5.462911  
     372A      5.467152   373A      5.500343   374A      5.528233  
     375A      5.584309   376A      5.605560   377A      5.609990  
     378A      5.661370   379A      5.673861   380A      5.680258  
     381A      5.701891   382A      5.757148   383A      5.762821  
     384A      5.793413   385A      5.814941   386A      5.857086  
     387A      5.900092   388A      5.926009   389A      5.966874  
     390A      6.021949   391A      6.124154   392A      6.151524  
     393A      6.173611   394A      6.212895   395A      6.229618  
     396A      6.265752   397A      6.269296   398A      6.328394  
     399A      6.332875   400A      6.362486   401A      6.393408  
     402A      6.461782   403A      6.560329   404A      6.595694  
     405A      6.745750   406A      6.783972   407A      6.833854  
     408A      6.855706   409A      6.858776   410A      6.983110  
     411A     18.121981   412A     18.330816   413A     18.851957  
     414A     19.205575  

    Final Occupation by Irrep:
              A 
    DOCC [    17 ]

  Energy converged.

  @DF-RHF Final Energy:  -157.35000908865703

   => Energetics <=

    Nuclear Repulsion Energy =            131.8361376050059732
    One-Electron Energy =                -471.7702731000156291
    Two-Electron Energy =                 182.5841264063525955
    DFT Exchange-Correlation Energy =       0.0000000000000000
    Empirical Dispersion Energy =           0.0000000000000000
    PCM Polarization Energy =               0.0000000000000000
    EFP Energy =                            0.0000000000000000
    Total Energy =                       -157.3500090886570320



Properties will be evaluated at   0.000000,   0.000000,   0.000000 Bohr

Properties computed using the SCF density matrix

  Nuclear Dipole Moment: (a.u.)
     X:     0.0012      Y:     0.0008      Z:    -0.0012

  Electronic Dipole Moment: (a.u.)
     X:    -0.0010      Y:    -0.0011      Z:    -0.0009

  Dipole Moment: (a.u.)
     X:     0.0002      Y:    -0.0003      Z:    -0.0021     Total:     0.0021

  Dipole Moment: (Debye)
     X:     0.0004      Y:    -0.0008      Z:    -0.0052     Total:     0.0053


*** tstop() called on gpu-2-7.local at Wed Jun 14 14:44:51 2017
Module time:
	user time   =      90.81 seconds =       1.51 minutes
	system time =       0.59 seconds =       0.01 minutes
	total time  =         91 seconds =       1.52 minutes
Total time:
	user time   =      90.82 seconds =       1.51 minutes
	system time =       0.59 seconds =       0.01 minutes
	total time  =         91 seconds =       1.52 minutes

  //>>>>>>>>>>>>>>>>>>>>>>>>>>>>>>>>>>>//
  //               DFMP2               //
  //<<<<<<<<<<<<<<<<<<<<<<<<<<<<<<<<<<<//

   => Loading Basis Set <=

    Name: (AUG-CC-PVTZ AUX)
    Role: RIFIT
    Keyword: DF_BASIS_MP2
    atoms 1-3, 5-6, 8-9, 11-13 entry H          line    29 file /cbio/jclab/home/chayas/anaconda/envs/py35/share/psi4/basis/aug-cc-pvtz-ri.gbs 
    atoms 4, 7, 10, 14         entry C          line   147 file /cbio/jclab/home/chayas/anaconda/envs/py35/share/psi4/basis/aug-cc-pvtz-ri.gbs 

	 --------------------------------------------------------
	                          DF-MP2                         
	      2nd-Order Density-Fitted Moller-Plesset Theory     
	              RMP2 Wavefunction,   1 Threads             
	                                                         
	        Rob Parrish, Justin Turney, Andy Simmonett,      
	           Ed Hohenstein, and C. David Sherrill          
	 --------------------------------------------------------

   => Auxiliary Basis Set <=

  Basis Set: (AUG-CC-PVTZ AUX)
    Blend: AUG-CC-PVTZ-RI
    Number of shells: 252
    Number of basis function: 884
    Number of Cartesian functions: 1094
    Spherical Harmonics?: true
    Max angular momentum: 4

	 --------------------------------------------------------
	                 NBF =   414, NAUX =   884
	 --------------------------------------------------------
	   CLASS    FOCC     OCC    AOCC    AVIR     VIR    FVIR
	   PAIRS       0      17      17     397     397       0
	 --------------------------------------------------------


         ------------------------------------------------------------
                                     CPHF                           
                                  Rob Parrish                       
         ------------------------------------------------------------

  ==> Geometry <==

    Molecular point group: c1
    Full point group: C1

    Geometry (in Angstrom), charge = 0, multiplicity = 1:

       Center              X                  Y                   Z               Mass       
    ------------   -----------------  -----------------  -----------------  -----------------
           H         -2.312776029323     0.057982647118     0.314776029323     1.007825032070
           H         -2.171776029323     1.685982647118    -0.305223970677     1.007825032070
           H         -1.873776029323     0.321982647118    -1.355223970677     1.007825032070
           C         -1.774776029323     0.692982647118    -0.357223970677    12.000000000000
           H          0.252223970677     1.348982647118    -0.635223970677     1.007825032070
           H         -0.185776029323     1.085982647118     1.035776029323     1.007825032070
           C         -0.285776029323     0.713982647118     0.037776029323    12.000000000000
           H         -0.251776029323    -1.349017352882     0.634776029323     1.007825032070
           H          0.187223970677    -1.086017352882    -1.035223970677     1.007825032070
           C          0.286223970677    -0.714017352882    -0.037223970677    12.000000000000
           H          1.947223970677     0.098982647118     1.054776029323     1.007825032070
           H          2.372223970677    -0.536017352882    -0.516223970677     1.007825032070
           H          2.038223970677    -1.628017352882     0.805776029323     1.007825032070
           C          1.774223970677    -0.693017352882     0.356776029323    12.000000000000

  Nuclear repulsion =  131.836137605005973
  Reference energy  = -157.350009088657032

  ==> Basis Set <==

  Basis Set: AUG-CC-PVTZ
    Blend: AUG-CC-PVTZ
    Number of shells: 146
    Number of basis function: 414
    Number of Cartesian functions: 470
    Spherical Harmonics?: true
    Max angular momentum: 3

  ==> CGRSolver (by Rob Parrish) <==

   Number of roots    =         1
   Preconditioning    =    JACOBI
   Convergence cutoff =     1E-06
   Maximum iterations =       100

  ==> CPHFRHamiltonian (by Rob Parrish) <== 

  ==> DFJK: Density-Fitted J/K Matrices <==

    J tasked:                  Yes
    K tasked:                  Yes
    wK tasked:                  No
    OpenMP threads:              1
    Integrals threads:           1
    Memory (MB):               715
    Algorithm:                Core
    Integral Cache:           NONE
    Schwarz Cutoff:          1E-12
    Fitting Condition:       1E-12

   => Auxiliary Basis Set <=

  Basis Set: (AUG-CC-PVTZ AUX)
    Blend: AUG-CC-PVTZ-JKFIT
    Number of shells: 260
    Number of basis function: 876
    Number of Cartesian functions: 1074
    Spherical Harmonics?: true
    Max angular momentum: 4

  ==> CPHF Iterations <==

  => Iterations <=

             Iter  Converged  Remaining    Residual
  CGR           1          0          1   8.165E-02
  CGR           2          0          1   1.309E-02
  CGR           3          0          1   3.417E-03
  CGR           4          0          1   8.062E-04
  CGR           5          0          1   1.190E-04
  CGR           6          0          1   2.159E-05
  CGR           7          0          1   3.946E-06
  CGR           8          1          0   9.676E-07

    CGRSolver converged.

  ==> DFCorrGrad: Density-Fitted Correlated Gradients <==

    OpenMP threads:              1
    Integrals threads:           1
    Memory (MB):               715
    Schwarz Cutoff:          0E+00
    Fitting Condition:       1E-12

   => Auxiliary Basis Set <=

  Basis Set: (AUG-CC-PVTZ AUX)
    Blend: AUG-CC-PVTZ-JKFIT
    Number of shells: 260
    Number of basis function: 876
    Number of Cartesian functions: 1074
    Spherical Harmonics?: true
    Max angular momentum: 4

	-----------------------------------------------------------
	 ==================> DF-MP2 Energies <==================== 
	-----------------------------------------------------------
	 Reference Energy          =    -157.3500090886570320 [Eh]
	 Singles Energy            =      -0.0000000000000000 [Eh]
	 Same-Spin Energy          =      -0.1654334194867882 [Eh]
	 Opposite-Spin Energy      =      -0.6391165953613996 [Eh]
	 Correlation Energy        =      -0.8045500148481878 [Eh]
	 Total Energy              =    -158.1545591035052212 [Eh]
	-----------------------------------------------------------
	 ================> DF-SCS-MP2 Energies <================== 
	-----------------------------------------------------------
	 SCS Same-Spin Scale       =       0.3333333333333333 [-]
	 SCS Opposite-Spin Scale   =       1.2000000000000000 [-]
	 SCS Same-Spin Energy      =      -0.0551444731622627 [Eh]
	 SCS Opposite-Spin Energy  =      -0.7669399144336796 [Eh]
	 SCS Correlation Energy    =      -0.8220843875959423 [Eh]
	 SCS Total Energy          =    -158.1720934762529680 [Eh]
	-----------------------------------------------------------


  -Total Gradient:
     Atom            X                  Y                   Z
    ------   -----------------  -----------------  -----------------
       1        0.007796318384     0.006815328723    -0.006385483906
       2        0.008190645016    -0.009400648559     0.000616588696
       3        0.003356375686     0.004151688138     0.011227315655
       4       -0.025253515127    -0.007245682911    -0.007693399729
       5       -0.008034172802    -0.008469733920     0.006055112647
       6       -0.003229109784    -0.005090599839    -0.011399646979
       7        0.022909268783     0.030966179453     0.012773518596
       8        0.008718080574     0.007329558648    -0.006282243542
       9        0.004280202241     0.006187332641     0.010772954211
      10       -0.018632134885    -0.030545081502    -0.010897774083
      11       -0.004490270840    -0.007310005962    -0.008493854213
      12       -0.009359090844    -0.002857466615     0.007149973870
      13       -0.007775786315     0.008964630288    -0.004250504557
      14        0.021523189916     0.006504501418     0.006807443334


*** tstop() called on gpu-2-7.local at Wed Jun 14 14:49:50 2017
Module time:
	user time   =     386.81 seconds =       6.45 minutes
	system time =       3.56 seconds =       0.06 minutes
	total time  =        390 seconds =       6.50 minutes
Total time:
	user time   =     386.82 seconds =       6.45 minutes
	system time =       3.56 seconds =       0.06 minutes
	total time  =        390 seconds =       6.50 minutes

			-----------------------------------------
			 OPTKING 2.0: for geometry optimizations 
			  - R.A. King,  Bethel University        
			-----------------------------------------

	Internal coordinates to be generated automatically.
	Detected frag 1 with atoms:  1 2 3 4 5 6 7 8 9 10 11 12 13 14
	---Fragment 1 Bond Connectivity---
	 1 : 4
	 2 : 4
	 3 : 4
	 4 : 1 2 3 7
	 5 : 7
	 6 : 7
	 7 : 4 5 6 10
	 8 : 10
	 9 : 10
	 10 : 7 8 9 14
	 11 : 14
	 12 : 14
	 13 : 14
	 14 : 10 11 12 13

	Assuming in current code that numbering for constraints corresponds to unified fragment.
	Fixed dihedral atom list: 
	     7    10    14    13
	---Fragment 1 Geometry and Gradient---
	 H          -4.3705133021        0.1095713235        0.5948404886
	 H          -4.1040619174        3.1860454679       -0.5767897138
	 H          -3.5409235298        0.6084590226       -2.5610021533
	 C          -3.3538406426        1.3095474179       -0.6750554727
	 H           0.4766342287        2.5492077611       -1.2003993376
	 H          -0.3510658175        2.0522097881        1.9573330304
	 C          -0.5400384308        1.3492316667        0.0713863498
	 H          -0.4757877422       -2.5492733455        1.1995528511
	 H           0.3538020301       -2.0522753725       -1.9562897908
	 C           0.5408849172       -1.3492972511       -0.0703431102
	 H           3.6797200240        0.1870500950        1.9932378270
	 H           4.4828536304       -1.0129259994       -0.9755219278
	 H           3.8516851021       -3.0765069365        1.5226960199
	 C           3.3527974030       -1.3096130023        0.6742089862
	             0.0077963184        0.0068153287       -0.0063854839
	             0.0081906450       -0.0094006486        0.0006165887
	             0.0033563757        0.0041516881        0.0112273157
	            -0.0252535151       -0.0072456829       -0.0076933997
	            -0.0080341728       -0.0084697339        0.0060551126
	            -0.0032291098       -0.0050905998       -0.0113996470
	             0.0229092688        0.0309661795        0.0127735186
	             0.0087180806        0.0073295586       -0.0062822435
	             0.0042802022        0.0061873326        0.0107729542
	            -0.0186321349       -0.0305450815       -0.0108977741
	            -0.0044902708       -0.0073100060       -0.0084938542
	            -0.0093590908       -0.0028574666        0.0071499739
	            -0.0077757863        0.0089646303       -0.0042505046
	             0.0215231899        0.0065045014        0.0068074433

	Previous optimization step data not found.  Starting new optimization.

	---Fragment 1 Intrafragment Coordinates---
	 - Coordinate -           - BOHR/RAD -       - ANG/DEG -
	 R(1,4)           =         2.021436	       1.069698
	 R(2,4)           =         2.023298	       1.070683
	 R(3,4)           =         2.020723	       1.069320
	 R(4,7)           =         2.911397	       1.540645
	 R(5,7)           =         2.022623	       1.070326
	 R(6,7)           =         2.021555	       1.069761
	 R(7,10)          =         2.910419	       1.540128
	 R(8,10)          =         2.021436	       1.069698
	 R(9,10)          =         2.021379	       1.069668
	 R(10,14)         =         2.909087	       1.539422
	 R(11,14)         =         2.021563	       1.069765
	 R(12,14)         =         2.021549	       1.069758
	 R(13,14)         =         2.022556	       1.070291
	 B(1,4,2)         =         1.910870	     109.484805
	 B(1,4,3)         =         1.911121	     109.499161
	 B(1,4,7)         =         1.910399	     109.457783
	 B(2,4,3)         =         1.910042	     109.437340
	 B(2,4,7)         =         1.910564	     109.467262
	 B(3,4,7)         =         1.910803	     109.480971
	 B(4,7,5)         =         1.909937	     109.431343
	 B(4,7,6)         =         1.911630	     109.528316
	 B(4,7,10)        =         1.911154	     109.501062
	 B(5,7,6)         =         1.910605	     109.469614
	 B(5,7,10)        =         1.910047	     109.437654
	 B(6,7,10)        =         1.910425	     109.459295
	 B(7,10,8)        =         1.910303	     109.452301
	 B(7,10,9)        =         1.910824	     109.482155
	 B(7,10,14)       =         1.911213	     109.504437
	 B(8,10,9)        =         1.910417	     109.458846
	 B(8,10,14)       =         1.910766	     109.478806
	 B(9,10,14)       =         1.910276	     109.450772
	 B(10,14,11)      =         1.910716	     109.475944
	 B(10,14,12)      =         1.910777	     109.479436
	 B(10,14,13)      =         1.911208	     109.504171
	 B(11,14,12)      =         1.910719	     109.476151
	 B(11,14,13)      =         1.910441	     109.460228
	 B(12,14,13)      =         1.909938	     109.431384
	 D(1,4,7,5)       =         3.140997	     179.965873
	 D(1,4,7,6)       =        -1.047644	     -60.025575
	 D(1,4,7,10)      =         1.047427	      60.013132
	 D(2,4,7,5)       =        -1.047689	     -60.028143
	 D(2,4,7,6)       =         1.046856	      59.980409
	 D(2,4,7,10)      =        -3.141259	    -179.980883
	 D(3,4,7,5)       =         1.046044	      59.933911
	 D(3,4,7,6)       =         3.140588	     179.942463
	 D(3,4,7,10)      =        -1.047526	     -60.018830
	 D(4,7,10,8)      =        -1.047368	     -60.009777
	 D(4,7,10,9)      =         1.046677	      59.970178
	 D(4,7,10,14)     =         3.141107	     179.972182
	 D(5,7,10,8)      =        -3.140871	    -179.958653
	 D(5,7,10,9)      =        -1.046826	     -59.978698
	 D(5,7,10,14)     =         1.047604	      60.023306
	 D(6,7,10,8)      =         1.048439	      60.071149
	 D(6,7,10,9)      =        -3.140701	    -179.948896
	 D(6,7,10,14)     =        -1.046271	     -59.946893
	 D(7,10,14,11)    =         0.523912	      30.017961
	 D(7,10,14,12)    =        -1.570727	     -89.996003
	 D(7,10,14,13)    =         2.618475	     150.027577
	 D(8,10,14,11)    =        -1.570515	     -89.983861
	 D(8,10,14,12)    =         2.618032	     150.002175
	 D(8,10,14,13)    =         0.524048	      30.025755
	 D(9,10,14,11)    =         2.618677	     150.039168
	 D(9,10,14,12)    =         0.524039	      30.025204
	 D(9,10,14,13)    =        -1.569945	     -89.951215

	Current energy   :      -158.1545591035

	Generating empirical Hessian (Schlegel '84) for each fragment.
	Adding user-defined constraint: Fragment 1; Coordinate 58:
		Value =     2.618475; Fixed value    =     2.617994
		Force =    -0.000241; Force constant =     0.500000
	Removing off-diagonal coupling between coordinate 58 and others.
	Taking RFO optimization step.
	Going to follow RFO solution 1.
	Using RFO vector 1.

	Determining step-restricting scale parameter for RS-RFO.
	Maximum step size allowed    0.10000

	 Iter      |step|        alpha        rfo_root  
	------------------------------------------------
	    0     0.21094       1.00000           1
	    1     0.16339       5.00576           1
	    2     0.12815      15.07010           1
	    3     0.10827      28.36785           1
	    4     0.10102      35.98989           1
	    5     0.10002      37.21013           1
	    6     0.10000      37.23326           1
	------------------------------------------------
	Norm of target step-size    0.10000
	Projected energy change by RFO approximation:        -0.0039561167

	Back-transformation to cartesian coordinates...
	Could not converge backtransformation.
	Using first guess instead.

	--- Internal Coordinate Step in ANG or DEG, aJ/ANG or AJ/DEG ---
	 ---------------------------------------------------------------------------
	   Coordinate                Previous        Force       Change         New 
	   ----------                --------       ------       ------       ------
	    1 R(1,4)          =      1.069698     0.098686     0.011908     1.081606
	    2 R(2,4)          =      1.070683     0.096604     0.011675     1.082358
	    3 R(3,4)          =      1.069320     0.100757     0.012148     1.081469
	    4 R(4,7)          =      1.540645    -0.052419    -0.007481     1.533164
	    5 R(5,7)          =      1.070326     0.106037     0.012767     1.083093
	    6 R(6,7)          =      1.069761     0.104690     0.012588     1.082348
	    7 R(7,10)         =      1.540128    -0.074111    -0.010473     1.529655
	    8 R(8,10)         =      1.069698     0.104486     0.012568     1.082266
	    9 R(9,10)         =      1.069668     0.103800     0.012486     1.082154
	   10 R(10,14)        =      1.539422    -0.002342    -0.000249     1.539174
	   11 R(11,14)        =      1.069765     0.096230     0.011704     1.081469
	   12 R(12,14)        =      1.069758     0.094630     0.011435     1.081193
	   13 R(13,14)        =      1.070291     0.095014     0.011489     1.081780
	   14 B(1,4,2)        =    109.484805    -0.000245    -0.555216   108.929589
	   15 B(1,4,3)        =    109.499161    -0.000171    -0.442385   109.056776
	   16 B(1,4,7)        =    109.457783     0.000118     0.257250   109.715033
	   17 B(2,4,3)        =    109.437340    -0.000247    -0.554381   108.882959
	   18 B(2,4,7)        =    109.467262     0.000413     0.984473   110.451736
	   19 B(3,4,7)        =    109.480971     0.000133     0.295715   109.776686
	   20 B(4,7,5)        =    109.431343    -0.000130    -0.163356   109.267987
	   21 B(4,7,6)        =    109.528316    -0.000115    -0.130735   109.397581
	   22 B(4,7,10)       =    109.501062     0.000666     1.399553   110.900615
	   23 B(5,7,6)        =    109.469614     0.000017    -0.203528   109.266086
	   24 B(5,7,10)       =    109.437654    -0.000201    -0.400179   109.037475
	   25 B(6,7,10)       =    109.459295    -0.000238    -0.511571   108.947724
	   26 B(7,10,8)       =    109.452301    -0.000248    -0.554783   108.897518
	   27 B(7,10,9)       =    109.482155    -0.000262    -0.551019   108.931137
	   28 B(7,10,14)      =    109.504437     0.000709     1.492095   110.996532
	   29 B(8,10,9)       =    109.458846     0.000004    -0.266376   109.192470
	   30 B(8,10,14)      =    109.478806    -0.000091    -0.031749   109.447057
	   31 B(9,10,14)      =    109.450772    -0.000113    -0.101654   109.349119
	   32 B(10,14,11)     =    109.475944     0.000162     0.336072   109.812016
	   33 B(10,14,12)     =    109.479436     0.000272     0.647755   110.127190
	   34 B(10,14,13)     =    109.504171     0.000444     1.050807   110.554978
	   35 B(11,14,12)     =    109.476151    -0.000255    -0.635379   108.840772
	   36 B(11,14,13)     =    109.460228    -0.000307    -0.755320   108.704908
	   37 B(12,14,13)     =    109.431384    -0.000317    -0.670885   108.760500
	   38 D(1,4,7,5)      =    179.965873     0.000010     0.132029   180.097902
	   39 D(1,4,7,6)      =    -60.025575    -0.000020    -0.295414   -60.320989
	   40 D(1,4,7,10)     =     60.013132    -0.000009    -0.138507    59.874625
	   41 D(2,4,7,5)      =    -60.028143     0.000015     0.220418   -59.807725
	   42 D(2,4,7,6)      =     59.980409    -0.000014    -0.207025    59.773384
	   43 D(2,4,7,10)     =   -179.980883    -0.000003    -0.050119  -180.031002
	   44 D(3,4,7,5)      =     59.933911     0.000023     0.334319    60.268229
	   45 D(3,4,7,6)      =    179.942463    -0.000007    -0.093124   179.849338
	   46 D(3,4,7,10)     =    -60.018830     0.000004     0.063782   -59.955048
	   47 D(4,7,10,8)     =    -60.009777     0.000034     0.463553   -59.546223
	   48 D(4,7,10,9)     =     59.970178    -0.000036    -0.520029    59.450149
	   49 D(4,7,10,14)    =    179.972182    -0.000005    -0.070036   179.902145
	   50 D(5,7,10,8)     =   -179.958653     0.000006     0.052102  -179.906551
	   51 D(5,7,10,9)     =    -59.978698    -0.000065    -0.931481   -60.910179
	   52 D(5,7,10,14)    =     60.023306    -0.000034    -0.481488    59.541818
	   53 D(6,7,10,8)     =     60.071149     0.000062     0.845603    60.916752
	   54 D(6,7,10,9)     =   -179.948896    -0.000008    -0.137979  -180.086876
	   55 D(6,7,10,14)    =    -59.946893     0.000023     0.312014   -59.634879
	   56 D(7,10,14,11)   =     30.017961     0.000010     0.165015    30.182976
	   57 D(7,10,14,12)   =    -89.996003     0.000021     0.336814   -89.659190
	   58 D(7,10,14,13)   =    150.027577     0.000009     0.098295   150.125873
	   59 D(8,10,14,11)   =    -89.983861    -0.000007    -0.058972   -90.042833
	   60 D(8,10,14,12)   =    150.002175     0.000004     0.112827   150.115002
	   61 D(8,10,14,13)   =     30.025755    -0.000008    -0.125691    29.900064
	   62 D(9,10,14,11)   =    150.039168     0.000020     0.347829   150.386998
	   63 D(9,10,14,12)   =     30.025204     0.000031     0.519628    30.544832
	   64 D(9,10,14,13)   =    -89.951215     0.000019     0.281109   -89.670106
	 ---------------------------------------------------------------------------
	Successfully symmetrized geometry.
	 Forces used to impose fixed constraints are not included.
	  Forces zeroed: 58 

  ==> Convergence Check <==

  Measures of convergence in internal coordinates in au.
  Criteria marked as inactive (o), active & met (*), and active & unmet ( ).
  --------------------------------------------------------------------------------------------- ~
   Step     Total Energy     Delta E     MAX Force     RMS Force      MAX Disp      RMS Disp    ~
  --------------------------------------------------------------------------------------------- ~
    Convergence Criteria    1.00e-06 *    3.00e-04 *             o    1.20e-03 *             o  ~
  --------------------------------------------------------------------------------------------- ~
      1    -158.15455910   -1.58e+02      1.29e-02      5.62e-03 o    2.60e-02      1.25e-02 o  ~
  ---------------------------------------------------------------------------------------------

	Writing optimization data to binary file.
	Structure for next step:
	Cartesian Geometry (in Angstrom)
	    H    -2.3315307875   0.0593380748   0.3171109627
	    H    -2.1881209848   1.6993205137  -0.3080410634
	    H    -1.8890618589   0.3254221439  -1.3671418716
	    C    -1.7789030136   0.6985532868  -0.3580765981
	    H     0.2493670815   1.3488974083  -0.6457928731
	    H    -0.1931957858   1.0824912129   1.0427976658
	    C    -0.2965859418   0.7057138540   0.0334280028
	    H    -0.2559265209  -1.3455544484   0.6450964105
	    H     0.1873149482  -1.0815511925  -1.0419801934
	    C     0.2922100768  -0.7045135563  -0.0330713247
	    H     1.9715006221   0.0947751869   1.0660702856
	    H     2.3947538949  -0.5404595895  -0.5185739470
	    H     2.0582516665  -1.6421713740   0.8097896449
	    C     1.7810621927  -0.6995044609   0.3572493094
			--------------------------
			 OPTKING Finished Execution 
			--------------------------

    Structure for next step:
    Molecular point group: c1
    Full point group: C1

    Geometry (in Angstrom), charge = 0, multiplicity = 1:

    H           -2.331130952378     0.059277787252     0.317219738557
    H           -2.187721149674     1.699260226204    -0.307932287585
    H           -1.888662023832     0.325361856361    -1.367033095804
    C           -1.778503178497     0.698492999280    -0.357967822331
    H            0.249766916622     1.348837120762    -0.645684097254
    H           -0.192795950658     1.082430925431     1.042906441611
    C           -0.296186106668     0.705653566493     0.033536778660
    H           -0.255526685766    -1.345614735869     0.645205186342
    H            0.187714783328    -1.081611480049    -1.041871417579
    C            0.292609911887    -0.704573843862    -0.032962548850
    H            1.971900457180     0.094714899411     1.066179061460
    H            2.395153730000    -0.540519877061    -0.518465171167
    H            2.058651501636    -1.642231661484     0.809898420707
    C            1.781462027832    -0.699564748416     0.357358085224

gradient() will perform analytic gradient computation.

*** tstart() called on gpu-2-7.local
*** at Wed Jun 14 14:49:50 2017

    SCF Algorithm Type (re)set to DF.

*** tstart() called on gpu-2-7.local
*** at Wed Jun 14 14:49:50 2017

   => Loading Basis Set <=

    Name: AUG-CC-PVTZ
    Role: ORBITAL
    Keyword: BASIS
    atoms 1-3, 5-6, 8-9, 11-13 entry H          line    34 file /cbio/jclab/home/chayas/anaconda/envs/py35/share/psi4/basis/aug-cc-pvtz.gbs 
    atoms 4, 7, 10, 14         entry C          line   221 file /cbio/jclab/home/chayas/anaconda/envs/py35/share/psi4/basis/aug-cc-pvtz.gbs 


         ---------------------------------------------------------
                                   SCF
            by Justin Turney, Rob Parrish, and Andy Simmonett
                              RHF Reference
                        1 Threads,    953 MiB Core
         ---------------------------------------------------------

  ==> Geometry <==

    Molecular point group: c1
    Full point group: C1

    Geometry (in Angstrom), charge = 0, multiplicity = 1:

       Center              X                  Y                   Z               Mass       
    ------------   -----------------  -----------------  -----------------  -----------------
           H         -2.331130952378     0.059277787252     0.317219738557     1.007825032070
           H         -2.187721149674     1.699260226204    -0.307932287585     1.007825032070
           H         -1.888662023832     0.325361856361    -1.367033095804     1.007825032070
           C         -1.778503178497     0.698492999280    -0.357967822331    12.000000000000
           H          0.249766916622     1.348837120762    -0.645684097254     1.007825032070
           H         -0.192795950658     1.082430925431     1.042906441611     1.007825032070
           C         -0.296186106668     0.705653566493     0.033536778660    12.000000000000
           H         -0.255526685766    -1.345614735869     0.645205186342     1.007825032070
           H          0.187714783328    -1.081611480049    -1.041871417579     1.007825032070
           C          0.292609911887    -0.704573843862    -0.032962548850    12.000000000000
           H          1.971900457180     0.094714899411     1.066179061460     1.007825032070
           H          2.395153730000    -0.540519877061    -0.518465171167     1.007825032070
           H          2.058651501636    -1.642231661484     0.809898420707     1.007825032070
           C          1.781462027832    -0.699564748416     0.357358085224    12.000000000000

  Running in c1 symmetry.

  Rotational constants: A =      0.77684  B =      0.12327  C =      0.11552 [cm^-1]
  Rotational constants: A =  23289.07183  B =   3695.49402  C =   3463.13397 [MHz]
  Nuclear repulsion =  131.358599754461210

  Charge       = 0
  Multiplicity = 1
  Electrons    = 34
  Nalpha       = 17
  Nbeta        = 17

  ==> Algorithm <==

  SCF Algorithm Type is DF.
  DIIS enabled.
  MOM disabled.
  Fractional occupation disabled.
  Guess Type is READ.
  Energy threshold   = 1.00e-10
  Density threshold  = 1.00e-10
  Integral threshold = 0.00e+00

  ==> Primary Basis <==

  Basis Set: AUG-CC-PVTZ
    Blend: AUG-CC-PVTZ
    Number of shells: 146
    Number of basis function: 414
    Number of Cartesian functions: 470
    Spherical Harmonics?: true
    Max angular momentum: 3

   => Loading Basis Set <=

    Name: (AUG-CC-PVTZ AUX)
    Role: JKFIT
    Keyword: DF_BASIS_SCF
    atoms 1-3, 5-6, 8-9, 11-13 entry H          line    69 file /cbio/jclab/home/chayas/anaconda/envs/py35/share/psi4/basis/aug-cc-pvtz-jkfit.gbs 
    atoms 4, 7, 10, 14         entry C          line   161 file /cbio/jclab/home/chayas/anaconda/envs/py35/share/psi4/basis/aug-cc-pvtz-jkfit.gbs 

  Reading orbitals from file 180, no projection.

  ==> Pre-Iterations <==

   -------------------------------------------------------
    Irrep   Nso     Nmo     Nalpha   Nbeta   Ndocc  Nsocc
   -------------------------------------------------------
     A        414     414       0       0       0       0
   -------------------------------------------------------
    Total     414     414      17      17      17       0
   -------------------------------------------------------

  ==> Integral Setup <==

  ==> DFJK: Density-Fitted J/K Matrices <==

    J tasked:                  Yes
    K tasked:                  Yes
    wK tasked:                  No
    OpenMP threads:              1
    Integrals threads:           1
    Memory (MB):               715
    Algorithm:                Core
    Integral Cache:           NONE
    Schwarz Cutoff:          1E-12
    Fitting Condition:       1E-12

   => Auxiliary Basis Set <=

  Basis Set: (AUG-CC-PVTZ AUX)
    Blend: AUG-CC-PVTZ-JKFIT
    Number of shells: 260
    Number of basis function: 876
    Number of Cartesian functions: 1074
    Spherical Harmonics?: true
    Max angular momentum: 4

  Minimum eigenvalue in the overlap matrix is 8.9935835716E-06.
  Using Symmetric Orthogonalization.

  SCF Guess: Orbitals guess was supplied from a previous computation.

  ==> Iterations <==

                           Total Energy        Delta E     RMS |[F,P]|

   @DF-RHF iter   0:  -157.27641158532151   -1.57276e+02   1.22093e-04 
   @DF-RHF iter   1:  -157.35245439656180   -7.60428e-02   5.05566e-05 
   @DF-RHF iter   2:  -157.35271451786218   -2.60121e-04   2.61554e-05 DIIS
   @DF-RHF iter   3:  -157.35277001470794   -5.54968e-05   2.81185e-06 DIIS
   @DF-RHF iter   4:  -157.35277141920355   -1.40450e-06   7.58784e-07 DIIS
   @DF-RHF iter   5:  -157.35277150532565   -8.61221e-08   2.53546e-07 DIIS
   @DF-RHF iter   6:  -157.35277151523957   -9.91392e-09   4.26664e-08 DIIS
   @DF-RHF iter   7:  -157.35277151564819   -4.08619e-10   6.38630e-09 DIIS
   @DF-RHF iter   8:  -157.35277151565765   -9.46443e-12   1.23353e-09 DIIS
   @DF-RHF iter   9:  -157.35277151565742    2.27374e-13   3.03737e-10 DIIS
   @DF-RHF iter  10:  -157.35277151565842   -9.94760e-13   7.27330e-11 DIIS

  ==> Post-Iterations <==

    Orbital Energies (a.u.)
    -----------------------

    Doubly Occupied:                                                      

       1A    -11.210394     2A    -11.209595     3A    -11.203610  
       4A    -11.203234     5A     -1.070664     6A     -0.979247  
       7A     -0.860324     8A     -0.789637     9A     -0.644529  
      10A     -0.584395    11A     -0.572744    12A     -0.572301  
      13A     -0.511577    14A     -0.500798    15A     -0.468988  
      16A     -0.465022    17A     -0.448639  

    Virtual:                                                              

      18A      0.032304    19A      0.037291    20A      0.039497  
      21A      0.040636    22A      0.057612    23A      0.058522  
      24A      0.059951    25A      0.061143    26A      0.080169  
      27A      0.082724    28A      0.100509    29A      0.112515  
      30A      0.122860    31A      0.130728    32A      0.137032  
      33A      0.141740    34A      0.142623    35A      0.145824  
      36A      0.148299    37A      0.160168    38A      0.163626  
      39A      0.166897    40A      0.171553    41A      0.201529  
      42A      0.205608    43A      0.213577    44A      0.228138  
      45A      0.242924    46A      0.248888    47A      0.252026  
      48A      0.267508    49A      0.276331    50A      0.282199  
      51A      0.285784    52A      0.313846    53A      0.318450  
      54A      0.329850    55A      0.336441    56A      0.344748  
      57A      0.353098    58A      0.357060    59A      0.357969  
      60A      0.364117    61A      0.371544    62A      0.372644  
      63A      0.380976    64A      0.386259    65A      0.389988  
      66A      0.390818    67A      0.397323    68A      0.401016  
      69A      0.403910    70A      0.411081    71A      0.418573  
      72A      0.428728    73A      0.440626    74A      0.447549  
      75A      0.450080    76A      0.459497    77A      0.460331  
      78A      0.463264    79A      0.470662    80A      0.483549  
      81A      0.486668    82A      0.496136    83A      0.499986  
      84A      0.504151    85A      0.511538    86A      0.514645  
      87A      0.518645    88A      0.531856    89A      0.537326  
      90A      0.543273    91A      0.547791    92A      0.555305  
      93A      0.568453    94A      0.571693    95A      0.581909  
      96A      0.589671    97A      0.606938    98A      0.609554  
      99A      0.610061   100A      0.632418   101A      0.640269  
     102A      0.658325   103A      0.676262   104A      0.679859  
     105A      0.698799   106A      0.717138   107A      0.760665  
     108A      0.776489   109A      0.798252   110A      0.811145  
     111A      0.820288   112A      0.827806   113A      0.834151  
     114A      0.844464   115A      0.846604   116A      0.858525  
     117A      0.866493   118A      0.874665   119A      0.879827  
     120A      0.888240   121A      0.895149   122A      0.900998  
     123A      0.909038   124A      0.919258   125A      0.924087  
     126A      0.929222   127A      0.931700   128A      0.934905  
     129A      0.944078   130A      0.959648   131A      0.960750  
     132A      0.972919   133A      0.977398   134A      0.986857  
     135A      0.994315   136A      1.016752   137A      1.024437  
     138A      1.032339   139A      1.046005   140A      1.066353  
     141A      1.079854   142A      1.082428   143A      1.088052  
     144A      1.103747   145A      1.109024   146A      1.114623  
     147A      1.124036   148A      1.131063   149A      1.147283  
     150A      1.152735   151A      1.156341   152A      1.169041  
     153A      1.174447   154A      1.187536   155A      1.194422  
     156A      1.215405   157A      1.223869   158A      1.230216  
     159A      1.241272   160A      1.247447   161A      1.259283  
     162A      1.265026   163A      1.272392   164A      1.279428  
     165A      1.293912   166A      1.298453   167A      1.313391  
     168A      1.320294   169A      1.336079   170A      1.355567  
     171A      1.366094   172A      1.383850   173A      1.401668  
     174A      1.412750   175A      1.427458   176A      1.440613  
     177A      1.456903   178A      1.479371   179A      1.499193  
     180A      1.505483   181A      1.516917   182A      1.523341  
     183A      1.537267   184A      1.554133   185A      1.568436  
     186A      1.583745   187A      1.595453   188A      1.609284  
     189A      1.628854   190A      1.639435   191A      1.648063  
     192A      1.657547   193A      1.670189   194A      1.690932  
     195A      1.694881   196A      1.698010   197A      1.710037  
     198A      1.715790   199A      1.728828   200A      1.738331  
     201A      1.745912   202A      1.758884   203A      1.763573  
     204A      1.768034   205A      1.780701   206A      1.783347  
     207A      1.793132   208A      1.806069   209A      1.817323  
     210A      1.854330   211A      1.865934   212A      1.871245  
     213A      1.887221   214A      1.898027   215A      1.912390  
     216A      1.923876   217A      1.954645   218A      1.966904  
     219A      1.985261   220A      1.992872   221A      1.994813  
     222A      2.012017   223A      2.024069   224A      2.034955  
     225A      2.038583   226A      2.058171   227A      2.082713  
     228A      2.088716   229A      2.103541   230A      2.155223  
     231A      2.162417   232A      2.186425   233A      2.195373  
     234A      2.203245   235A      2.229572   236A      2.252705  
     237A      2.261584   238A      2.274172   239A      2.286322  
     240A      2.298738   241A      2.324564   242A      2.331793  
     243A      2.337734   244A      2.344840   245A      2.360960  
     246A      2.374231   247A      2.408858   248A      2.440523  
     249A      2.463638   250A      2.479228   251A      2.500838  
     252A      2.542110   253A      2.601958   254A      2.611263  
     255A      2.630778   256A      2.662423   257A      2.767134  
     258A      2.895745   259A      2.961088   260A      3.029728  
     261A      3.228997   262A      3.242917   263A      3.302925  
     264A      3.364667   265A      3.398145   266A      3.427923  
     267A      3.447172   268A      3.458942   269A      3.464382  
     270A      3.486258   271A      3.522859   272A      3.556469  
     273A      3.565087   274A      3.582757   275A      3.600180  
     276A      3.603264   277A      3.633194   278A      3.661766  
     279A      3.677804   280A      3.688389   281A      3.704826  
     282A      3.710862   283A      3.733797   284A      3.742419  
     285A      3.752661   286A      3.775295   287A      3.778658  
     288A      3.798590   289A      3.815598   290A      3.827760  
     291A      3.846970   292A      3.870068   293A      3.872994  
     294A      3.881687   295A      3.906266   296A      3.914617  
     297A      3.952406   298A      3.968540   299A      3.971686  
     300A      3.980393   301A      3.997842   302A      4.007742  
     303A      4.015115   304A      4.017859   305A      4.047611  
     306A      4.053506   307A      4.065817   308A      4.083427  
     309A      4.133111   310A      4.164175   311A      4.186995  
     312A      4.195243   313A      4.220996   314A      4.230366  
     315A      4.237890   316A      4.261334   317A      4.267752  
     318A      4.281945   319A      4.311808   320A      4.317136  
     321A      4.332663   322A      4.366043   323A      4.375352  
     324A      4.399835   325A      4.427870   326A      4.437742  
     327A      4.507077   328A      4.524974   329A      4.560303  
     330A      4.572307   331A      4.605404   332A      4.647544  
     333A      4.654218   334A      4.673893   335A      4.701561  
     336A      4.716538   337A      4.723471   338A      4.734571  
     339A      4.760473   340A      4.776097   341A      4.791392  
     342A      4.843109   343A      4.853739   344A      4.869274  
     345A      4.876020   346A      4.917523   347A      4.936706  
     348A      4.944210   349A      4.959870   350A      4.997643  
     351A      5.024539   352A      5.045188   353A      5.065152  
     354A      5.085991   355A      5.106342   356A      5.142469  
     357A      5.148770   358A      5.170713   359A      5.206888  
     360A      5.217472   361A      5.231039   362A      5.252580  
     363A      5.262952   364A      5.289949   365A      5.306908  
     366A      5.319211   367A      5.366489   368A      5.370022  
     369A      5.414529   370A      5.434601   371A      5.438119  
     372A      5.450145   373A      5.474731   374A      5.494611  
     375A      5.556864   376A      5.568695   377A      5.584952  
     378A      5.630680   379A      5.642553   380A      5.648746  
     381A      5.686886   382A      5.723472   383A      5.737046  
     384A      5.756987   385A      5.805997   386A      5.815390  
     387A      5.866231   388A      5.888680   389A      5.932467  
     390A      5.994341   391A      6.067679   392A      6.126057  
     393A      6.142587   394A      6.175687   395A      6.188221  
     396A      6.225626   397A      6.231210   398A      6.286242  
     399A      6.291865   400A      6.328334   401A      6.350437  
     402A      6.431231   403A      6.554635   404A      6.580968  
     405A      6.733958   406A      6.779111   407A      6.830257  
     408A      6.851134   409A      6.852975   410A      6.985590  
     411A     18.016059   412A     18.143864   413A     18.812226  
     414A     18.935077  

    Final Occupation by Irrep:
              A 
    DOCC [    17 ]

  Energy converged.

  @DF-RHF Final Energy:  -157.35277151565842

   => Energetics <=

    Nuclear Repulsion Energy =            131.3585997544612098
    One-Electron Energy =                -470.8313448132494727
    Two-Electron Energy =                 182.1199735431298734
    DFT Exchange-Correlation Energy =       0.0000000000000000
    Empirical Dispersion Energy =           0.0000000000000000
    PCM Polarization Energy =               0.0000000000000000
    EFP Energy =                            0.0000000000000000
    Total Energy =                       -157.3527715156584179



Properties will be evaluated at   0.000000,   0.000000,   0.000000 Bohr

Properties computed using the SCF density matrix

  Nuclear Dipole Moment: (a.u.)
     X:     0.0069      Y:    -0.0001      Z:     0.0004

  Electronic Dipole Moment: (a.u.)
     X:    -0.0069      Y:     0.0007      Z:    -0.0019

  Dipole Moment: (a.u.)
     X:    -0.0001      Y:     0.0006      Z:    -0.0015     Total:     0.0016

  Dipole Moment: (Debye)
     X:    -0.0001      Y:     0.0015      Z:    -0.0038     Total:     0.0041


*** tstop() called on gpu-2-7.local at Wed Jun 14 14:50:50 2017
Module time:
	user time   =      59.50 seconds =       0.99 minutes
	system time =       0.41 seconds =       0.01 minutes
	total time  =         60 seconds =       1.00 minutes
Total time:
	user time   =     446.37 seconds =       7.44 minutes
	system time =       4.04 seconds =       0.07 minutes
	total time  =        450 seconds =       7.50 minutes

  //>>>>>>>>>>>>>>>>>>>>>>>>>>>>>>>>>>>//
  //               DFMP2               //
  //<<<<<<<<<<<<<<<<<<<<<<<<<<<<<<<<<<<//

   => Loading Basis Set <=

    Name: (AUG-CC-PVTZ AUX)
    Role: RIFIT
    Keyword: DF_BASIS_MP2
    atoms 1-3, 5-6, 8-9, 11-13 entry H          line    29 file /cbio/jclab/home/chayas/anaconda/envs/py35/share/psi4/basis/aug-cc-pvtz-ri.gbs 
    atoms 4, 7, 10, 14         entry C          line   147 file /cbio/jclab/home/chayas/anaconda/envs/py35/share/psi4/basis/aug-cc-pvtz-ri.gbs 

	 --------------------------------------------------------
	                          DF-MP2                         
	      2nd-Order Density-Fitted Moller-Plesset Theory     
	              RMP2 Wavefunction,   1 Threads             
	                                                         
	        Rob Parrish, Justin Turney, Andy Simmonett,      
	           Ed Hohenstein, and C. David Sherrill          
	 --------------------------------------------------------

   => Auxiliary Basis Set <=

  Basis Set: (AUG-CC-PVTZ AUX)
    Blend: AUG-CC-PVTZ-RI
    Number of shells: 252
    Number of basis function: 884
    Number of Cartesian functions: 1094
    Spherical Harmonics?: true
    Max angular momentum: 4

	 --------------------------------------------------------
	                 NBF =   414, NAUX =   884
	 --------------------------------------------------------
	   CLASS    FOCC     OCC    AOCC    AVIR     VIR    FVIR
	   PAIRS       0      17      17     397     397       0
	 --------------------------------------------------------


         ------------------------------------------------------------
                                     CPHF                           
                                  Rob Parrish                       
         ------------------------------------------------------------

  ==> Geometry <==

    Molecular point group: c1
    Full point group: C1

    Geometry (in Angstrom), charge = 0, multiplicity = 1:

       Center              X                  Y                   Z               Mass       
    ------------   -----------------  -----------------  -----------------  -----------------
           H         -2.331130952378     0.059277787252     0.317219738557     1.007825032070
           H         -2.187721149674     1.699260226204    -0.307932287585     1.007825032070
           H         -1.888662023832     0.325361856361    -1.367033095804     1.007825032070
           C         -1.778503178497     0.698492999280    -0.357967822331    12.000000000000
           H          0.249766916622     1.348837120762    -0.645684097254     1.007825032070
           H         -0.192795950658     1.082430925431     1.042906441611     1.007825032070
           C         -0.296186106668     0.705653566493     0.033536778660    12.000000000000
           H         -0.255526685766    -1.345614735869     0.645205186342     1.007825032070
           H          0.187714783328    -1.081611480049    -1.041871417579     1.007825032070
           C          0.292609911887    -0.704573843862    -0.032962548850    12.000000000000
           H          1.971900457180     0.094714899411     1.066179061460     1.007825032070
           H          2.395153730000    -0.540519877061    -0.518465171167     1.007825032070
           H          2.058651501636    -1.642231661484     0.809898420707     1.007825032070
           C          1.781462027832    -0.699564748416     0.357358085224    12.000000000000

  Nuclear repulsion =  131.358599754461210
  Reference energy  = -157.352771515658418

  ==> Basis Set <==

  Basis Set: AUG-CC-PVTZ
    Blend: AUG-CC-PVTZ
    Number of shells: 146
    Number of basis function: 414
    Number of Cartesian functions: 470
    Spherical Harmonics?: true
    Max angular momentum: 3

  ==> CGRSolver (by Rob Parrish) <==

   Number of roots    =         1
   Preconditioning    =    JACOBI
   Convergence cutoff =     1E-06
   Maximum iterations =       100

  ==> CPHFRHamiltonian (by Rob Parrish) <== 

  ==> DFJK: Density-Fitted J/K Matrices <==

    J tasked:                  Yes
    K tasked:                  Yes
    wK tasked:                  No
    OpenMP threads:              1
    Integrals threads:           1
    Memory (MB):               715
    Algorithm:                Core
    Integral Cache:           NONE
    Schwarz Cutoff:          1E-12
    Fitting Condition:       1E-12

   => Auxiliary Basis Set <=

  Basis Set: (AUG-CC-PVTZ AUX)
    Blend: AUG-CC-PVTZ-JKFIT
    Number of shells: 260
    Number of basis function: 876
    Number of Cartesian functions: 1074
    Spherical Harmonics?: true
    Max angular momentum: 4

  ==> CPHF Iterations <==

  => Iterations <=

             Iter  Converged  Remaining    Residual
  CGR           1          0          1   8.300E-02
  CGR           2          0          1   1.326E-02
  CGR           3          0          1   3.490E-03
  CGR           4          0          1   8.154E-04
  CGR           5          0          1   1.205E-04
  CGR           6          0          1   2.208E-05
  CGR           7          0          1   3.923E-06
  CGR           8          1          0   9.013E-07

    CGRSolver converged.

  ==> DFCorrGrad: Density-Fitted Correlated Gradients <==

    OpenMP threads:              1
    Integrals threads:           1
    Memory (MB):               715
    Schwarz Cutoff:          0E+00
    Fitting Condition:       1E-12

   => Auxiliary Basis Set <=

  Basis Set: (AUG-CC-PVTZ AUX)
    Blend: AUG-CC-PVTZ-JKFIT
    Number of shells: 260
    Number of basis function: 876
    Number of Cartesian functions: 1074
    Spherical Harmonics?: true
    Max angular momentum: 4

	-----------------------------------------------------------
	 ==================> DF-MP2 Energies <==================== 
	-----------------------------------------------------------
	 Reference Energy          =    -157.3527715156584179 [Eh]
	 Singles Energy            =      -0.0000000000000001 [Eh]
	 Same-Spin Energy          =      -0.1653458882190534 [Eh]
	 Opposite-Spin Energy      =      -0.6394981720770225 [Eh]
	 Correlation Energy        =      -0.8048440602960761 [Eh]
	 Total Energy              =    -158.1576155759544804 [Eh]
	-----------------------------------------------------------
	 ================> DF-SCS-MP2 Energies <================== 
	-----------------------------------------------------------
	 SCS Same-Spin Scale       =       0.3333333333333333 [-]
	 SCS Opposite-Spin Scale   =       1.2000000000000000 [-]
	 SCS Same-Spin Energy      =      -0.0551152960730178 [Eh]
	 SCS Opposite-Spin Energy  =      -0.7673978064924271 [Eh]
	 SCS Correlation Energy    =      -0.8225131025654450 [Eh]
	 SCS Total Energy          =    -158.1752846182238557 [Eh]
	-----------------------------------------------------------


  -Total Gradient:
     Atom            X                  Y                   Z
    ------   -----------------  -----------------  -----------------
       1        0.003495146913     0.002246915375    -0.001380055414
       2        0.003377390101    -0.002306369919     0.000475325117
       3        0.002260648930     0.001499830893     0.003517735244
       4       -0.013897998343    -0.003817921046    -0.004123634646
       5       -0.003586096657    -0.004159778417     0.000254403922
       6       -0.002403955278    -0.003179574558    -0.003296183182
       7        0.012833807814     0.015693703671     0.007672749414
       8        0.003824978323     0.003235534444    -0.000752365897
       9        0.003103511997     0.004245417734     0.002722281382
      10       -0.012048659773    -0.015704613290    -0.006683710137
      11       -0.002365857508    -0.001931992154    -0.003261354745
      12       -0.003848987295    -0.001785577434     0.001433157008
      13       -0.003566390290     0.002578521329    -0.000532814438
      14        0.012822461068     0.003385903373     0.003954466370


*** tstop() called on gpu-2-7.local at Wed Jun 14 14:54:59 2017
Module time:
	user time   =     305.99 seconds =       5.10 minutes
	system time =       2.99 seconds =       0.05 minutes
	total time  =        309 seconds =       5.15 minutes
Total time:
	user time   =     692.86 seconds =      11.55 minutes
	system time =       6.62 seconds =       0.11 minutes
	total time  =        699 seconds =      11.65 minutes

			-----------------------------------------
			 OPTKING 2.0: for geometry optimizations 
			  - R.A. King,  Bethel University        
			-----------------------------------------

	Previous internal coordinate definitions found.
	---Fragment 1 Geometry and Gradient---
	 H          -4.4051990799        0.1120187837        0.5994584298
	 H          -4.1341938280        3.2111364560       -0.5819076910
	 H          -3.5690539826        0.6148448026       -2.5833181657
	 C          -3.3608839338        1.3199604744       -0.6764611486
	 H           0.4719910695        2.5489327561       -1.2201661122
	 H          -0.3643315463        2.0454980068        1.9708075569
	 C          -0.5597106260        1.3334919854        0.0633753270
	 H          -0.4828754557       -2.5428433312        1.2192611017
	 H           0.3547295316       -2.0439494795       -1.9688516449
	 C           0.5529525972       -1.3314516053       -0.0622901900
	 H           3.7263518254        0.1789852206        2.0147864348
	 H           4.5261845959       -1.0214345370       -0.9797571829
	 H           3.8902875411       -3.1033680870        1.5304862106
	 C           3.3664753487       -1.3219857867        0.6753089124
	             0.0034951469        0.0022469154       -0.0013800554
	             0.0033773901       -0.0023063699        0.0004753251
	             0.0022606489        0.0014998309        0.0035177352
	            -0.0138979983       -0.0038179210       -0.0041236346
	            -0.0035860967       -0.0041597784        0.0002544039
	            -0.0024039553       -0.0031795746       -0.0032961832
	             0.0128338078        0.0156937037        0.0076727494
	             0.0038249783        0.0032355344       -0.0007523659
	             0.0031035120        0.0042454177        0.0027222814
	            -0.0120486598       -0.0157046133       -0.0066837101
	            -0.0023658575       -0.0019319922       -0.0032613547
	            -0.0038489873       -0.0017855774        0.0014331570
	            -0.0035663903        0.0025785213       -0.0005328144
	             0.0128224611        0.0033859034        0.0039544664

	---Fragment 1 Intrafragment Coordinates---
	 - Coordinate -           - BOHR/RAD -       - ANG/DEG -
	 R(1,4)           =         2.043939	       1.081606
	 R(2,4)           =         2.045359	       1.082358
	 R(3,4)           =         2.043680	       1.081469
	 R(4,7)           =         2.897260	       1.533164
	 R(5,7)           =         2.046749	       1.083093
	 R(6,7)           =         2.045342	       1.082348
	 R(7,10)          =         2.890629	       1.529655
	 R(8,10)          =         2.045185	       1.082266
	 R(9,10)          =         2.044975	       1.082154
	 R(10,14)         =         2.908617	       1.539174
	 R(11,14)         =         2.043679	       1.081469
	 R(12,14)         =         2.043159	       1.081193
	 R(13,14)         =         2.044268	       1.081780
	 B(1,4,2)         =         1.901180	     108.929589
	 B(1,4,3)         =         1.903400	     109.056776
	 B(1,4,7)         =         1.914889	     109.715033
	 B(2,4,3)         =         1.900366	     108.882959
	 B(2,4,7)         =         1.927746	     110.451736
	 B(3,4,7)         =         1.915965	     109.776686
	 B(4,7,5)         =         1.907086	     109.267987
	 B(4,7,6)         =         1.909348	     109.397581
	 B(4,7,10)        =         1.935581	     110.900615
	 B(5,7,6)         =         1.907053	     109.266086
	 B(5,7,10)        =         1.903063	     109.037475
	 B(6,7,10)        =         1.901496	     108.947724
	 B(7,10,8)        =         1.900620	     108.897518
	 B(7,10,9)        =         1.901207	     108.931137
	 B(7,10,14)       =         1.937255	     110.996532
	 B(8,10,9)        =         1.905768	     109.192470
	 B(8,10,14)       =         1.910212	     109.447057
	 B(9,10,14)       =         1.908502	     109.349119
	 B(10,14,11)      =         1.916581	     109.812016
	 B(10,14,12)      =         1.922082	     110.127190
	 B(10,14,13)      =         1.929548	     110.554978
	 B(11,14,12)      =         1.899630	     108.840772
	 B(11,14,13)      =         1.897259	     108.704908
	 B(12,14,13)      =         1.898229	     108.760500
	 D(1,4,7,5)       =        -3.139884	    -179.902098
	 D(1,4,7,6)       =        -1.052800	     -60.320989
	 D(1,4,7,10)      =         1.045009	      59.874625
	 D(2,4,7,5)       =        -1.043842	     -59.807725
	 D(2,4,7,6)       =         1.043242	      59.773384
	 D(2,4,7,10)      =         3.141052	     179.968998
	 D(3,4,7,5)       =         1.051879	      60.268229
	 D(3,4,7,6)       =         3.138963	     179.849338
	 D(3,4,7,10)      =        -1.046413	     -59.955048
	 D(4,7,10,8)      =        -1.039278	     -59.546223
	 D(4,7,10,9)      =         1.037601	      59.450149
	 D(4,7,10,14)     =         3.139885	     179.902145
	 D(5,7,10,8)      =        -3.139962	    -179.906551
	 D(5,7,10,9)      =        -1.063083	     -60.910179
	 D(5,7,10,14)     =         1.039201	      59.541818
	 D(6,7,10,8)      =         1.063198	      60.916752
	 D(6,7,10,9)      =         3.140076	     179.913124
	 D(6,7,10,14)     =        -1.040825	     -59.634879
	 D(7,10,14,11)    =         0.526792	      30.182976
	 D(7,10,14,12)    =        -1.564848	     -89.659190
	 D(7,10,14,13)    =         2.620191	     150.125873
	 D(8,10,14,11)    =        -1.571544	     -90.042833
	 D(8,10,14,12)    =         2.620001	     150.115002
	 D(8,10,14,13)    =         0.521855	      29.900064
	 D(9,10,14,11)    =         2.624748	     150.386998
	 D(9,10,14,12)    =         0.533108	      30.544832
	 D(9,10,14,13)    =        -1.565039	     -89.670106

	Current energy   :      -158.1576155760

	Energy change for the previous step:
		Projected    :        -0.0039561167
		Actual       :        -0.0030564724

	Performing BFGS update.
	Previous computed or guess Hessian on step 1.
	Steps to be used in Hessian update: 1
	Adding user-defined constraint: Fragment 1; Coordinate 58:
		Value =     2.620191; Fixed value    =     2.617990
		Force =    -0.001155; Force constant =     0.525000
	Removing off-diagonal coupling between coordinate 58 and others.
	Taking RFO optimization step.
	Going to follow RFO solution 1.
	Using RFO vector 1.

	Determining step-restricting scale parameter for RS-RFO.
	Maximum step size allowed    0.10000

	 Iter      |step|        alpha        rfo_root  
	------------------------------------------------
	    0     0.18998       1.00000           1
	    1     0.15081       4.68264           1
	    2     0.12057      13.49166           1
	    3     0.10496      22.84042           1
	    4     0.10040      26.69290           1
	    5     0.10000      27.06210           1
	------------------------------------------------
	Norm of target step-size    0.10000
	Projected energy change by RFO approximation:        -0.0015178817

	Back-transformation to cartesian coordinates...
	Successfully converged to displaced geometry.

	--- Internal Coordinate Step in ANG or DEG, aJ/ANG or AJ/DEG ---
	 ---------------------------------------------------------------------------
	   Coordinate                Previous        Force       Change         New 
	   ----------                --------       ------       ------       ------
	    1 R(1,4)          =      1.081606     0.032750     0.005982     1.087588
	    2 R(2,4)          =      1.082358     0.027908     0.004857     1.087214
	    3 R(3,4)          =      1.081469     0.033202     0.006046     1.087515
	    4 R(4,7)          =      1.533164    -0.041224    -0.010894     1.522269
	    5 R(5,7)          =      1.083093     0.036559     0.006739     1.089832
	    6 R(6,7)          =      1.082348     0.036336     0.006704     1.089053
	    7 R(7,10)         =      1.529655    -0.039921    -0.009721     1.519934
	    8 R(8,10)         =      1.082266     0.035634     0.006542     1.088807
	    9 R(9,10)         =      1.082154     0.035575     0.006542     1.088696
	   10 R(10,14)        =      1.539174    -0.027626    -0.008307     1.530867
	   11 R(11,14)        =      1.081469     0.032733     0.006076     1.087544
	   12 R(12,14)        =      1.081193     0.029728     0.005340     1.086533
	   13 R(13,14)        =      1.081780     0.027877     0.004887     1.086667
	   14 B(1,4,2)        =    108.929589    -0.000156    -0.657219   108.272369
	   15 B(1,4,3)        =    109.056776    -0.000154    -0.793021   108.263755
	   16 B(1,4,7)        =    109.715033     0.000122     0.584878   110.299911
	   17 B(2,4,3)        =    108.882959    -0.000155    -0.645053   108.237906
	   18 B(2,4,7)        =    110.451736     0.000206     0.839675   111.291411
	   19 B(3,4,7)        =    109.776686     0.000128     0.606407   110.383093
	   20 B(4,7,5)        =    109.267987    -0.000027     0.138985   109.406972
	   21 B(4,7,6)        =    109.397581    -0.000020     0.139743   109.537324
	   22 B(4,7,10)       =    110.900615     0.000273     1.065114   111.965729
	   23 B(5,7,6)        =    109.266086    -0.000078    -1.082628   108.183458
	   24 B(5,7,10)       =    109.037475    -0.000064    -0.082350   108.955125
	   25 B(6,7,10)       =    108.947724    -0.000088    -0.235058   108.712666
	   26 B(7,10,8)       =    108.897518    -0.000093    -0.303652   108.593866
	   27 B(7,10,9)       =    108.931137    -0.000085    -0.108047   108.823090
	   28 B(7,10,14)      =    110.996532     0.000285     1.102298   112.098830
	   29 B(8,10,9)       =    109.192470    -0.000087    -1.145541   108.046929
	   30 B(8,10,14)      =    109.447057    -0.000008     0.186624   109.633682
	   31 B(9,10,14)      =    109.349119    -0.000018     0.202820   109.551939
	   32 B(10,14,11)     =    109.812016     0.000111     0.407375   110.219391
	   33 B(10,14,12)     =    110.127190     0.000179     0.845022   110.972213
	   34 B(10,14,13)     =    110.554978     0.000218     0.879925   111.434903
	   35 B(11,14,12)     =    108.840772    -0.000172    -0.812000   108.028772
	   36 B(11,14,13)     =    108.704908    -0.000185    -0.904343   107.800564
	   37 B(12,14,13)     =    108.760500    -0.000165    -0.501682   108.258817
	   38 D(1,4,7,5)      =   -179.902098     0.000011     0.485058  -179.417040
	   39 D(1,4,7,6)      =    -60.320989    -0.000017    -0.666075   -60.987064
	   40 D(1,4,7,10)     =     59.874625    -0.000006    -0.185098    59.689527
	   41 D(2,4,7,5)      =    -59.807725     0.000015     0.585685   -59.222039
	   42 D(2,4,7,6)      =     59.773384    -0.000014    -0.565448    59.207936
	   43 D(2,4,7,10)     =    179.968998    -0.000002    -0.084471   179.884527
	   44 D(3,4,7,5)      =     60.268229     0.000019     0.716843    60.985073
	   45 D(3,4,7,6)      =    179.849338    -0.000009    -0.434290   179.415048
[...]
  CGR           5          0          1   1.206E-04
  CGR           6          0          1   2.272E-05
  CGR           7          0          1   4.148E-06
  CGR           8          1          0   9.967E-07

    CGRSolver converged.

  ==> DFCorrGrad: Density-Fitted Correlated Gradients <==

    OpenMP threads:              1
    Integrals threads:           1
    Memory (MB):               715
    Schwarz Cutoff:          0E+00
    Fitting Condition:       1E-12

   => Auxiliary Basis Set <=

  Basis Set: (AUG-CC-PVTZ AUX)
    Blend: AUG-CC-PVTZ-JKFIT
    Number of shells: 260
    Number of basis function: 876
    Number of Cartesian functions: 1074
    Spherical Harmonics?: true
    Max angular momentum: 4

	-----------------------------------------------------------
	 ==================> DF-MP2 Energies <==================== 
	-----------------------------------------------------------
	 Reference Energy          =    -157.3540140751422882 [Eh]
	 Singles Energy            =      -0.0000000000000000 [Eh]
	 Same-Spin Energy          =      -0.1654679872447843 [Eh]
	 Opposite-Spin Energy      =      -0.6395240948047972 [Eh]
	 Correlation Energy        =      -0.8049920820495815 [Eh]
	 Total Energy              =    -158.1590061571918682 [Eh]
	-----------------------------------------------------------
	 ================> DF-SCS-MP2 Energies <================== 
	-----------------------------------------------------------
	 SCS Same-Spin Scale       =       0.3333333333333333 [-]
	 SCS Opposite-Spin Scale   =       1.2000000000000000 [-]
	 SCS Same-Spin Energy      =      -0.0551559957482614 [Eh]
	 SCS Opposite-Spin Energy  =      -0.7674289137657566 [Eh]
	 SCS Correlation Energy    =      -0.8225849095140181 [Eh]
	 SCS Total Energy          =    -158.1765989846562945 [Eh]
	-----------------------------------------------------------


  -Total Gradient:
     Atom            X                  Y                   Z
    ------   -----------------  -----------------  -----------------
       1        0.000000413222    -0.000000628557    -0.000000260390
       2        0.000001752986     0.000001899879    -0.000011294248
       3       -0.000026177695    -0.000008087534    -0.000014315751
       4        0.000069960788    -0.000001322127     0.000001347089
       5        0.000003680262    -0.000006947390     0.000009555241
       6        0.000008509583     0.000029560121     0.000005833648
       7       -0.000647523829    -0.000388825040     0.002445272306
       8       -0.000026226427     0.000045694094    -0.000010820203
       9        0.000009308955    -0.000057619674     0.000000014191
      10        0.000647878506     0.000829727736    -0.002522239525
      11        0.000025070687    -0.000009468424    -0.000014454480
      12        0.000010405865    -0.000018058913    -0.000016023950
      13       -0.000728651511     0.001227516524     0.003037664405
      14        0.000651598604    -0.001643440698    -0.002910278331


*** tstop() called on gpu-2-7.local at Wed Jun 14 15:19:50 2017
Module time:
	user time   =     279.47 seconds =       4.66 minutes
	system time =       2.79 seconds =       0.05 minutes
	total time  =        282 seconds =       4.70 minutes
Total time:
	user time   =    2168.19 seconds =      36.14 minutes
	system time =      21.62 seconds =       0.36 minutes
	total time  =       2190 seconds =      36.50 minutes

			-----------------------------------------
			 OPTKING 2.0: for geometry optimizations 
			  - R.A. King,  Bethel University        
			-----------------------------------------

	Previous internal coordinate definitions found.
	---Fragment 1 Geometry and Gradient---
	 H          -4.4476546180        0.1119612103        0.5324016558
	 H          -4.1409426827        3.2330417870       -0.5758147947
	 H          -3.5729216783        0.6737278661       -2.6226550540
	 C          -3.3429232327        1.3427388435       -0.6912267317
	 H           0.4969302672        2.5730780959       -1.1533371225
	 H          -0.3758496821        2.0419650132        1.9883680320
	 C          -0.5806747053        1.3110822292        0.0719772660
	 H          -0.4785979823       -2.5200323362        1.2755057399
	 H           0.2764800680       -2.1192161389       -1.9089635805
	 C           0.5632621729       -1.3155372553       -0.0334995851
	 H           3.7654090652        0.1324042553        2.0274533844
	 H           4.5450746675       -0.9879717922       -0.9940016058
	 H           3.9260138791       -3.1194679888        1.5031461007
	 C           3.3608446073       -1.3399206909        0.6466934707
	             0.0000004132       -0.0000006286       -0.0000002604
	             0.0000017530        0.0000018999       -0.0000112942
	            -0.0000261777       -0.0000080875       -0.0000143158
	             0.0000699608       -0.0000013221        0.0000013471
	             0.0000036803       -0.0000069474        0.0000095552
	             0.0000085096        0.0000295601        0.0000058336
	            -0.0006475238       -0.0003888250        0.0024452723
	            -0.0000262264        0.0000456941       -0.0000108202
	             0.0000093090       -0.0000576197        0.0000000142
	             0.0006478785        0.0008297277       -0.0025222395
	             0.0000250707       -0.0000094684       -0.0000144545
	             0.0000104059       -0.0000180589       -0.0000160239
	            -0.0007286515        0.0012275165        0.0030376644
	             0.0006515986       -0.0016434407       -0.0029102783

	---Fragment 1 Intrafragment Coordinates---
	 - Coordinate -           - BOHR/RAD -       - ANG/DEG -
	 R(1,4)           =         2.057307	       1.088680
	 R(2,4)           =         2.055091	       1.087507
	 R(3,4)           =         2.056913	       1.088471
	 R(4,7)           =         2.865920	       1.516580
	 R(5,7)           =         2.062828	       1.091602
	 R(6,7)           =         2.061237	       1.090759
	 R(7,10)          =         2.866853	       1.517073
	 R(8,10)          =         2.061498	       1.090898
	 R(9,10)          =         2.060463	       1.090350
	 R(10,14)         =         2.879188	       1.523601
	 R(11,14)         =         2.058619	       1.089374
	 R(12,14)         =         2.053813	       1.086831
	 R(13,14)         =         2.054195	       1.087033
	 B(1,4,2)         =         1.884263	     107.960316
	 B(1,4,3)         =         1.879542	     107.689815
	 B(1,4,7)         =         1.931098	     110.643781
	 B(2,4,3)         =         1.884394	     107.967806
	 B(2,4,7)         =         1.949236	     111.683018
	 B(3,4,7)         =         1.932894	     110.746682
	 B(4,7,5)         =         1.916176	     109.788793
	 B(4,7,6)         =         1.917127	     109.843274
	 B(4,7,10)        =         1.965907	     112.638156
	 B(5,7,6)         =         1.858153	     106.464345
	 B(5,7,10)        =         1.907327	     109.281768
	 B(6,7,10)        =         1.895921	     108.628285
	 B(7,10,8)        =         1.886302	     108.077118
	 B(7,10,9)        =         1.912735	     109.591643
	 B(7,10,14)       =         1.967933	     112.754258
	 B(8,10,9)        =         1.854306	     106.243886
	 B(8,10,14)       =         1.913577	     109.639868
	 B(9,10,14)       =         1.925133	     110.302011
	 B(10,14,11)      =         1.921277	     110.081087
	 B(10,14,12)      =         1.949893	     111.720660
	 B(10,14,13)      =         1.953214	     111.910946
	 B(11,14,12)      =         1.875420	     107.453624
	 B(11,14,13)      =         1.860706	     106.610589
	 B(12,14,13)      =         1.899564	     108.837012
	 D(1,4,7,5)       =        -3.127541	    -179.194924
	 D(1,4,7,6)       =        -1.089910	     -62.447244
	 D(1,4,7,10)      =         1.025910	      58.780334
	 D(2,4,7,5)       =        -1.028053	     -58.903104
	 D(2,4,7,6)       =         1.009578	      57.844577
	 D(2,4,7,10)      =         3.125399	     179.072154
	 D(3,4,7,5)       =         1.072825	      61.468359
	 D(3,4,7,6)       =         3.110457	     178.216039
	 D(3,4,7,10)      =        -1.056908	     -60.556383
	 D(4,7,10,8)      =        -1.057308	     -60.579295
	 D(4,7,10,9)      =         0.956329	      54.793624
	 D(4,7,10,14)     =         3.107878	     178.068283
	 D(5,7,10,8)      =         3.091151	     177.109932
	 D(5,7,10,9)      =        -1.178397	     -67.517150
	 D(5,7,10,14)     =         0.973152	      55.757509
	 D(6,7,10,8)      =         1.070553	      61.338171
	 D(6,7,10,9)      =         3.084190	     176.711089
	 D(6,7,10,14)     =        -1.047446	     -60.014252
	 D(7,10,14,11)    =         0.558885	      32.021733
	 D(7,10,14,12)    =        -1.523298	     -87.278545
	 D(7,10,14,13)    =         2.624767	     150.388085
	 D(8,10,14,11)    =        -1.543552	     -88.438995
	 D(8,10,14,12)    =         2.657451	     152.260726
	 D(8,10,14,13)    =         0.522331	      29.927357
	 D(9,10,14,11)    =         2.703525	     154.900563
	 D(9,10,14,12)    =         0.621342	      35.600285
	 D(9,10,14,13)    =        -1.513778	     -86.733085

	Current energy   :      -158.1590061572

	Energy change for the previous step:
		Projected    :        -0.0000005772
		Actual       :         0.0000005772

	Performing BFGS update.
	Previous computed or guess Hessian on step 1.
	Steps to be used in Hessian update: 6 5
	Adding user-defined constraint: Fragment 1; Coordinate 58:
		Value =     2.624767; Fixed value    =     2.617990
		Force =    -0.004405; Force constant =     0.650000
	Removing off-diagonal coupling between coordinate 58 and others.
	Taking RFO optimization step.
	Going to follow RFO solution 1.
	Rejecting RFO root 1 because normalization gives large value.
	Using RFO vector 2.
	Norm of target step-size    0.00321
	Projected energy change by RFO approximation:         0.0000000559

	Back-transformation to cartesian coordinates...
	Successfully converged to displaced geometry.

	--- Internal Coordinate Step in ANG or DEG, aJ/ANG or AJ/DEG ---
	 ---------------------------------------------------------------------------
	   Coordinate                Previous        Force       Change         New 
	   ----------                --------       ------       ------       ------
	    1 R(1,4)          =      1.088680     0.000000     0.000009     1.088689
	    2 R(2,4)          =      1.087507    -0.000004     0.000007     1.087515
	    3 R(3,4)          =      1.088471    -0.000156    -0.000011     1.088461
	    4 R(4,7)          =      1.516580     0.000312     0.000064     1.516643
	    5 R(5,7)          =      1.091602     0.000066     0.000007     1.091609
	    6 R(6,7)          =      1.090759    -0.000138    -0.000015     1.090745
	    7 R(7,10)         =      1.517073     0.000150     0.000034     1.517107
	    8 R(8,10)         =      1.090898     0.000167     0.000029     1.090927
	    9 R(9,10)         =      1.090350    -0.000174    -0.000025     1.090325
	   10 R(10,14)        =      1.523601     0.000113     0.000051     1.523652
	   11 R(11,14)        =      1.089374     0.000095     0.000020     1.089394
	   12 R(12,14)        =      1.086831    -0.000129    -0.000000     1.086831
	   13 R(13,14)        =      1.087033    -0.000022     0.000002     1.087035
	   14 B(1,4,2)        =    107.960316    -0.000000     0.000520   107.960837
	   15 B(1,4,3)        =    107.689815     0.000001     0.005012   107.694826
	   16 B(1,4,7)        =    110.643781     0.000000    -0.001651   110.642130
	   17 B(2,4,3)        =    107.967806     0.000001     0.003788   107.971594
	   18 B(2,4,7)        =    111.683018     0.000000    -0.001789   111.681230
	   19 B(3,4,7)        =    110.746682    -0.000003    -0.005374   110.741308
	   20 B(4,7,5)        =    109.788793    -0.000000    -0.001905   109.786888
	   21 B(4,7,6)        =    109.843274    -0.000001    -0.005444   109.837831
	   22 B(4,7,10)       =    112.638156     0.000001    -0.000248   112.637908
	   23 B(5,7,6)        =    106.464345     0.000001     0.012603   106.476948
	   24 B(5,7,10)       =    109.281768     0.000001     0.010201   109.291969
	   25 B(6,7,10)       =    108.628285    -0.000002    -0.014512   108.613773
	   26 B(7,10,8)       =    108.077118    -0.000000     0.002538   108.079656
	   27 B(7,10,9)       =    109.591643     0.000001    -0.001508   109.590134
	   28 B(7,10,14)      =    112.754258    -0.000001    -0.004409   112.749850
	   29 B(8,10,9)       =    106.243886     0.000000     0.012636   106.256522
	   30 B(8,10,14)      =    109.639868    -0.000002    -0.005491   109.634377
	   31 B(9,10,14)      =    110.302011     0.000002    -0.002648   110.299363
	   32 B(10,14,11)     =    110.081087    -0.000006    -0.012639   110.068448
	   33 B(10,14,12)     =    111.720660     0.000003     0.003190   111.723850
	   34 B(10,14,13)     =    111.910946     0.000001     0.001070   111.912017
	   35 B(11,14,12)     =    107.453624     0.000001     0.000597   107.454221
	   36 B(11,14,13)     =    106.610589    -0.000004    -0.017198   106.593391
	   37 B(12,14,13)     =    108.837012     0.000005     0.024274   108.861286
	   38 D(1,4,7,5)      =   -179.194924     0.000000    -0.028746  -179.223671
	   39 D(1,4,7,6)      =    -62.447244     0.000000    -0.017753   -62.464997
	   40 D(1,4,7,10)     =     58.780334    -0.000000    -0.040288    58.740046
	   41 D(2,4,7,5)      =    -58.903104     0.000000    -0.030406   -58.933511
	   42 D(2,4,7,6)      =     57.844577     0.000000    -0.019414    57.825163
	   43 D(2,4,7,10)     =    179.072154    -0.000000    -0.041949   179.030206
	   44 D(3,4,7,5)      =     61.468359     0.000000    -0.030472    61.437887
	   45 D(3,4,7,6)      =    178.216039     0.000000    -0.019479   178.196560
	   46 D(3,4,7,10)     =    -60.556383    -0.000000    -0.042014   -60.598397
	   47 D(4,7,10,8)     =    -60.579295    -0.000000     0.041733   -60.537561
	   48 D(4,7,10,9)     =     54.793624     0.000000     0.057319    54.850943
	   49 D(4,7,10,14)    =    178.068283     0.000001     0.049702   178.117984
	   50 D(5,7,10,8)     =    177.109932    -0.000000     0.037044   177.146976
	   51 D(5,7,10,9)     =    -67.517150    -0.000000     0.052630   -67.464520
	   52 D(5,7,10,14)    =     55.757509     0.000001     0.045012    55.802522
	   53 D(6,7,10,8)     =     61.338171    -0.000000     0.024499    61.362670
	   54 D(6,7,10,9)     =    176.711089    -0.000000     0.040085   176.751174
	   55 D(6,7,10,14)    =    -60.014252     0.000000     0.032468   -59.981784
	   56 D(7,10,14,11)   =     32.021733    -0.000001     0.029357    32.051091
	   57 D(7,10,14,12)   =    -87.278545    -0.000000     0.034925   -87.243620
	   58 D(7,10,14,13)   =    150.388085    -0.000002     0.000273   150.388358
	   59 D(8,10,14,11)   =    -88.438995     0.000000     0.032870   -88.406125
	   60 D(8,10,14,12)   =    152.260726     0.000000     0.038438   152.299164
	   61 D(8,10,14,13)   =     29.927357    -0.000002     0.003786    29.931143
	   62 D(9,10,14,11)   =    154.900563    -0.000000     0.022309   154.922872
	   63 D(9,10,14,12)   =     35.600285     0.000000     0.027876    35.628161
	   64 D(9,10,14,13)   =    -86.733085    -0.000002    -0.006776   -86.739860
	 ---------------------------------------------------------------------------
	Successfully symmetrized geometry.
	 Forces used to impose fixed constraints are not included.
	  Forces zeroed: 58 

  ==> Convergence Check <==

  Measures of convergence in internal coordinates in au.
  Criteria marked as inactive (o), active & met (*), and active & unmet ( ).
  ---------------------------------------------------------------------------------------------
   Step     Total Energy     Delta E     MAX Force     RMS Force      MAX Disp      RMS Disp   
  ---------------------------------------------------------------------------------------------
    Convergence Criteria    1.00e-06 *    3.00e-04 *             o    1.20e-03 *             o
  ---------------------------------------------------------------------------------------------
      7    -158.15900616    5.77e-07 *    1.14e-04 *    2.94e-05 o    1.00e-03 *    4.01e-04 o  ~
  ---------------------------------------------------------------------------------------------


  **** Optimization is complete! (in 7 steps) ****

  ==> Optimization Summary <==

  Measures of convergence in internal coordinates in au.
  --------------------------------------------------------------------------------------------------------------- ~
   Step         Total Energy             Delta E       MAX Force       RMS Force        MAX Disp        RMS Disp  ~
  --------------------------------------------------------------------------------------------------------------- ~
      1    -158.154559103505   -158.154559103505      0.01287062      0.00562212      0.02604198      0.01250734  ~
      2    -158.157615575954     -0.003056472449      0.00500364      0.00231267      0.03045121      0.01252253  ~
      3    -158.158675612342     -0.001060036387      0.00174946      0.00068627      0.04031034      0.01251921  ~
      4    -158.158955778432     -0.000280166090      0.00088310      0.00020898      0.03951388      0.01249923  ~
      5    -158.159003003577     -0.000047225145      0.00011987      0.00004615      0.00678645      0.00283719  ~
      6    -158.159006734426     -0.000003730849      0.00011757      0.00002708      0.00198719      0.00088869  ~
      7    -158.159006157192      0.000000577234      0.00014051      0.00003425      0.00100041      0.00040099  ~
  --------------------------------------------------------------------------------------------------------------- ~

	Writing optimization data to binary file.
	Final energy is   -158.1590061571919
	Final (previous) structure:
	Cartesian Geometry (in Angstrom)
	    H    -2.3535974555   0.0592473207   0.2817348221
	    H    -2.1912924897   1.7108520281  -0.3047080657
	    H    -1.8907087202   0.3565214315  -1.3878492806
	    C    -1.7689987848   0.7105467931  -0.3657814324
	    H     0.2629641716   1.3616142843  -0.6103197190
	    H    -0.1988910856   1.0805613457   1.0521990448
	    C    -0.3072798197   0.6937948343   0.0380887287
	    H    -0.2532631443  -1.3335436772   0.6749685670
	    H     0.1463069506  -1.1214408808  -1.0101800188
	    C     0.2980655044  -0.6961523326  -0.0177272169
	    H     1.9925686583   0.0700653143   1.0728821225
	    H     2.4051499254  -0.5228121552  -0.5260029951
	    H     2.0775570654  -1.6507513626   0.7954306577
	    C     1.7784823678  -0.7090554909   0.3422154456
	Saving final (previous) structure.
			--------------------------
			 OPTKING Finished Execution 
			--------------------------

    Final optimized geometry and variables:
    Molecular point group: c1
    Full point group: C1

    Geometry (in Angstrom), charge = 0, multiplicity = 1:

    H           -2.353597455510     0.059247320720     0.281734822081
    H           -2.191292489747     1.710852028080    -0.304708065749
    H           -1.890708720232     0.356521431533    -1.387849280560
    C           -1.768998784793     0.710546793085    -0.365781432389
    H            0.262964171639     1.361614284279    -0.610319719030
    H           -0.198891085637     1.080561345700     1.052199044820
    C           -0.307279819676     0.693794834280     0.038088728705
    H           -0.253263144290    -1.333543677220     0.674968566984
    H            0.146306950605    -1.121440880784    -1.010180018833
    C            0.298065504359    -0.696152332567    -0.017727216937
    H            1.992568658346     0.070065314251     1.072882122501
    H            2.405149925386    -0.522812155160    -0.526002995085
    H            2.077557065408    -1.650751362613     0.795430657690
    C            1.778482367781    -0.709055490916     0.342215445623

	Cleaning optimization helper files.

*** Psi4 exiting successfully. Buy a developer a beer!
