
    -----------------------------------------------------------------------
          Psi4: An Open-Source Ab Initio Electronic Structure Package
                               Psi4 1.1 release

                         Git: Rev {HEAD} add49b9 


    R. M. Parrish, L. A. Burns, D. G. A. Smith, A. C. Simmonett,
    A. E. DePrince III, E. G. Hohenstein, U. Bozkaya, A. Yu. Sokolov,
    R. Di Remigio, R. M. Richard, J. F. Gonthier, A. M. James,
    H. R. McAlexander, A. Kumar, M. Saitow, X. Wang, B. P. Pritchard,
    P. Verma, H. F. Schaefer III, K. Patkowski, R. A. King, E. F. Valeev,
    F. A. Evangelista, J. M. Turney, T. D. Crawford, and C. D. Sherrill,
    J. Chem. Theory Comput. in press (2017).
    (doi: 10.1021/acs.jctc.7b00174)

    -----------------------------------------------------------------------


    Psi4 started on: Wednesday, 14 June 2017 02:43PM

    Process ID:  14201
    PSIDATADIR: /cbio/jclab/home/chayas/anaconda/envs/py35/share/psi4
    Memory:     500.0 MiB
    Threads:    1
    
  ==> Input File <==

--------------------------------------------------------------------------

memory 1000 mb

molecule butane {
  symmetry C1
  0 1 
  H      1.604   0.760   -8.260
  H      1.745   2.388   -8.880
  H      2.043   1.024   -9.930
  C      2.142   1.395   -8.932
  H      4.169   2.051   -9.210
  H      3.731   1.788   -7.539
  C      3.631   1.416   -8.537
  H      3.665   -0.647   -7.940
  H      4.104   -0.384   -9.610
  C      4.203   -0.012   -8.612
  H      5.809   0.538   -7.296
  H      6.256   0.497   -8.984
  H      6.044   -0.994   -8.100
  C      5.691   0.009   -8.218
  units Angstrom
}

dih_string = "7 10 14 13 170"
set optking fixed_dihedral = $dih_string

optimize('MP2/aug-cc-pvtz')
--------------------------------------------------------------------------

  Memory set to 953.674 MiB by Python driver.
gradient() will perform analytic gradient computation.

*** tstart() called on gpu-1-11.local
*** at Wed Jun 14 14:43:20 2017

    SCF Algorithm Type (re)set to DF.

*** tstart() called on gpu-1-11.local
*** at Wed Jun 14 14:43:20 2017

   => Loading Basis Set <=

    Name: AUG-CC-PVTZ
    Role: ORBITAL
    Keyword: BASIS
    atoms 1-3, 5-6, 8-9, 11-13 entry H          line    34 file /cbio/jclab/home/chayas/anaconda/envs/py35/share/psi4/basis/aug-cc-pvtz.gbs 
    atoms 4, 7, 10, 14         entry C          line   221 file /cbio/jclab/home/chayas/anaconda/envs/py35/share/psi4/basis/aug-cc-pvtz.gbs 


         ---------------------------------------------------------
                                   SCF
            by Justin Turney, Rob Parrish, and Andy Simmonett
                              RHF Reference
                        1 Threads,    953 MiB Core
         ---------------------------------------------------------

  ==> Geometry <==

    Molecular point group: c1
    Full point group: C1

    Geometry (in Angstrom), charge = 0, multiplicity = 1:

       Center              X                  Y                   Z               Mass       
    ------------   -----------------  -----------------  -----------------  -----------------
           H         -2.312793382205     0.057982647118     0.314776029323     1.007825032070
           H         -2.171793382205     1.685982647118    -0.305223970677     1.007825032070
           H         -1.873793382205     0.321982647118    -1.355223970677     1.007825032070
           C         -1.774793382205     0.692982647118    -0.357223970677    12.000000000000
           H          0.252206617795     1.348982647118    -0.635223970677     1.007825032070
           H         -0.185793382205     1.085982647118     1.035776029323     1.007825032070
           C         -0.285793382205     0.713982647118     0.037776029323    12.000000000000
           H         -0.251793382205    -1.349017352882     0.634776029323     1.007825032070
           H          0.187206617795    -1.086017352882    -1.035223970677     1.007825032070
           C          0.286206617795    -0.714017352882    -0.037223970677    12.000000000000
           H          1.892206617795    -0.164017352882     1.278776029323     1.007825032070
           H          2.339206617795    -0.205017352882    -0.409223970677     1.007825032070
           H          2.127206617795    -1.696017352882     0.474776029323     1.007825032070
           C          1.774206617795    -0.693017352882     0.356776029323    12.000000000000

  Running in c1 symmetry.

  Rotational constants: A =      0.76959  B =      0.12464  C =      0.11638 [cm^-1]
  Rotational constants: A =  23071.71435  B =   3736.64700  C =   3488.92804 [MHz]
  Nuclear repulsion =  131.824625705373393

  Charge       = 0
  Multiplicity = 1
  Electrons    = 34
  Nalpha       = 17
  Nbeta        = 17

  ==> Algorithm <==

  SCF Algorithm Type is DF.
  DIIS enabled.
  MOM disabled.
  Fractional occupation disabled.
  Guess Type is SAD.
  Energy threshold   = 1.00e-10
  Density threshold  = 1.00e-10
  Integral threshold = 0.00e+00

  ==> Primary Basis <==

  Basis Set: AUG-CC-PVTZ
    Blend: AUG-CC-PVTZ
    Number of shells: 146
    Number of basis function: 414
    Number of Cartesian functions: 470
    Spherical Harmonics?: true
    Max angular momentum: 3

   => Loading Basis Set <=

    Name: (AUG-CC-PVTZ AUX)
    Role: JKFIT
    Keyword: DF_BASIS_SCF
    atoms 1-3, 5-6, 8-9, 11-13 entry H          line    69 file /cbio/jclab/home/chayas/anaconda/envs/py35/share/psi4/basis/aug-cc-pvtz-jkfit.gbs 
    atoms 4, 7, 10, 14         entry C          line   161 file /cbio/jclab/home/chayas/anaconda/envs/py35/share/psi4/basis/aug-cc-pvtz-jkfit.gbs 

  ==> Pre-Iterations <==

   -------------------------------------------------------
    Irrep   Nso     Nmo     Nalpha   Nbeta   Ndocc  Nsocc
   -------------------------------------------------------
     A        414     414       0       0       0       0
   -------------------------------------------------------
    Total     414     414      17      17      17       0
   -------------------------------------------------------

  ==> Integral Setup <==

  ==> DFJK: Density-Fitted J/K Matrices <==

    J tasked:                  Yes
    K tasked:                  Yes
    wK tasked:                  No
    OpenMP threads:              1
    Integrals threads:           1
    Memory (MB):               715
    Algorithm:                Core
    Integral Cache:           NONE
    Schwarz Cutoff:          1E-12
    Fitting Condition:       1E-12

   => Auxiliary Basis Set <=

  Basis Set: (AUG-CC-PVTZ AUX)
    Blend: AUG-CC-PVTZ-JKFIT
    Number of shells: 260
    Number of basis function: 876
    Number of Cartesian functions: 1074
    Spherical Harmonics?: true
    Max angular momentum: 4

  Minimum eigenvalue in the overlap matrix is 7.9129599083E-06.
  Using Symmetric Orthogonalization.

  SCF Guess: Superposition of Atomic Densities via on-the-fly atomic UHF.

  ==> Iterations <==

                           Total Energy        Delta E     RMS |[F,P]|

   @DF-RHF iter   0:  -158.79466869293384   -1.58795e+02   9.16129e-03 
   @DF-RHF iter   1:  -157.21860618189217    1.57606e+00   1.09129e-03 
   @DF-RHF iter   2:  -157.33290988495332   -1.14304e-01   4.13779e-04 DIIS
   @DF-RHF iter   3:  -157.34997600685230   -1.70661e-02   1.23032e-04 DIIS
   @DF-RHF iter   4:  -157.35234602747141   -2.37002e-03   2.13492e-05 DIIS
   @DF-RHF iter   5:  -157.35242420418140   -7.81767e-05   7.09805e-06 DIIS
   @DF-RHF iter   6:  -157.35243190901789   -7.70484e-06   1.39470e-06 DIIS
   @DF-RHF iter   7:  -157.35243231429570   -4.05278e-07   2.21932e-07 DIIS
   @DF-RHF iter   8:  -157.35243232610952   -1.18138e-08   3.53274e-08 DIIS
   @DF-RHF iter   9:  -157.35243232637598   -2.66454e-10   7.77147e-09 DIIS
   @DF-RHF iter  10:  -157.35243232638871   -1.27329e-11   1.52163e-09 DIIS
   @DF-RHF iter  11:  -157.35243232638925   -5.40012e-13   2.94038e-10 DIIS
   @DF-RHF iter  12:  -157.35243232638933   -8.52651e-14   1.02899e-10 DIIS
   @DF-RHF iter  13:  -157.35243232639198   -2.64322e-12   1.91337e-11 DIIS

  ==> Post-Iterations <==

    Orbital Energies (a.u.)
    -----------------------

    Doubly Occupied:                                                      

       1A    -11.207098     2A    -11.206429     3A    -11.198752  
       4A    -11.198454     5A     -1.070691     6A     -0.981228  
       7A     -0.861659     8A     -0.794888     9A     -0.647596  
      10A     -0.587600    11A     -0.575338    12A     -0.570636  
      13A     -0.514529    14A     -0.503575    15A     -0.476083  
      16A     -0.468517    17A     -0.441727  

    Virtual:                                                              

      18A      0.032268    19A      0.037064    20A      0.039646  
      21A      0.040905    22A      0.056626    23A      0.058498  
      24A      0.059657    25A      0.061154    26A      0.081982  
      27A      0.085055    28A      0.096714    29A      0.112369  
      30A      0.123314    31A      0.130751    32A      0.135628  
      33A      0.142022    34A      0.143716    35A      0.146817  
      36A      0.148437    37A      0.159574    38A      0.159782  
      39A      0.167855    40A      0.170485    41A      0.202201  
      42A      0.209440    43A      0.211745    44A      0.230049  
      45A      0.249373    46A      0.250736    47A      0.251859  
      48A      0.270185    49A      0.275421    50A      0.282027  
      51A      0.282624    52A      0.316035    53A      0.318648  
      54A      0.332174    55A      0.337807    56A      0.339718  
      57A      0.348582    58A      0.357280    59A      0.358532  
      60A      0.360413    61A      0.373915    62A      0.374396  
      63A      0.384512    64A      0.388982    65A      0.390448  
      66A      0.392313    67A      0.395391    68A      0.402690  
      69A      0.408865    70A      0.414588    71A      0.424544  
      72A      0.430270    73A      0.443629    74A      0.449215  
      75A      0.457648    76A      0.462363    77A      0.464815  
      78A      0.469345    79A      0.475943    80A      0.477404  
      81A      0.485336    82A      0.491782    83A      0.499404  
      84A      0.506133    85A      0.507392    86A      0.511417  
      87A      0.522983    88A      0.526295    89A      0.528935  
      90A      0.537373    91A      0.545976    92A      0.561849  
      93A      0.565477    94A      0.576131    95A      0.587212  
      96A      0.595920    97A      0.599079    98A      0.613588  
      99A      0.626793   100A      0.634366   101A      0.639605  
     102A      0.656021   103A      0.685607   104A      0.691907  
     105A      0.702748   106A      0.705774   107A      0.764012  
     108A      0.777641   109A      0.797364   110A      0.817110  
     111A      0.824040   112A      0.826729   113A      0.838941  
     114A      0.843546   115A      0.846551   116A      0.856823  
     117A      0.861558   118A      0.865234   119A      0.887683  
     120A      0.891056   121A      0.898253   122A      0.904586  
     123A      0.908931   124A      0.922275   125A      0.924689  
     126A      0.933576   127A      0.938945   128A      0.947139  
     129A      0.949577   130A      0.960711   131A      0.964296  
     132A      0.969271   133A      0.983244   134A      0.990816  
     135A      0.996140   136A      1.010885   137A      1.012596  
     138A      1.031033   139A      1.048593   140A      1.055701  
     141A      1.072156   142A      1.079397   143A      1.097291  
     144A      1.104827   145A      1.111857   146A      1.127635  
     147A      1.131895   148A      1.133460   149A      1.136872  
     150A      1.162259   151A      1.165638   152A      1.169195  
     153A      1.175091   154A      1.199793   155A      1.202927  
     156A      1.214795   157A      1.225879   158A      1.244219  
     159A      1.253622   160A      1.256550   161A      1.261580  
     162A      1.266671   163A      1.274536   164A      1.280432  
     165A      1.289723   166A      1.305551   167A      1.314735  
     168A      1.330331   169A      1.343672   170A      1.353188  
     171A      1.361762   172A      1.375482   173A      1.393445  
     174A      1.428813   175A      1.433079   176A      1.438932  
     177A      1.463164   178A      1.486231   179A      1.496184  
     180A      1.503462   181A      1.530143   182A      1.533314  
     183A      1.551181   184A      1.557695   185A      1.577686  
     186A      1.581506   187A      1.596778   188A      1.616159  
     189A      1.627823   190A      1.637621   191A      1.646407  
     192A      1.650012   193A      1.684165   194A      1.688449  
     195A      1.700286   196A      1.703099   197A      1.712126  
     198A      1.715500   199A      1.737710   200A      1.740448  
     201A      1.748898   202A      1.758364   203A      1.760990  
     204A      1.778528   205A      1.780609   206A      1.787511  
     207A      1.793848   208A      1.801848   209A      1.829556  
     210A      1.850414   211A      1.864345   212A      1.870965  
     213A      1.890412   214A      1.900513   215A      1.919418  
     216A      1.921689   217A      1.966772   218A      1.976970  
     219A      1.984063   220A      1.986589   221A      1.995068  
     222A      1.999161   223A      2.034714   224A      2.051126  
     225A      2.058730   226A      2.069990   227A      2.098436  
     228A      2.105147   229A      2.145240   230A      2.151085  
     231A      2.161315   232A      2.189610   233A      2.194406  
     234A      2.206444   235A      2.246963   236A      2.258105  
     237A      2.261032   238A      2.291392   239A      2.307575  
     240A      2.322566   241A      2.333821   242A      2.334379  
     243A      2.345249   244A      2.352868   245A      2.377043  
     246A      2.388869   247A      2.433187   248A      2.457618  
     249A      2.471950   250A      2.473859   251A      2.504257  
     252A      2.548460   253A      2.607040   254A      2.618684  
     255A      2.650759   256A      2.676637   257A      2.689318  
     258A      2.885350   259A      2.901542   260A      3.006701  
     261A      3.235986   262A      3.255429   263A      3.274465  
     264A      3.382051   265A      3.401057   266A      3.420741  
     267A      3.452872   268A      3.462486   269A      3.479972  
     270A      3.482659   271A      3.519378   272A      3.535480  
     273A      3.562933   274A      3.575758   275A      3.592766  
     276A      3.606968   277A      3.623928   278A      3.666986  
     279A      3.690572   280A      3.694310   281A      3.719740  
     282A      3.727295   283A      3.729864   284A      3.740349  
     285A      3.753447   286A      3.759552   287A      3.790857  
     288A      3.795663   289A      3.806944   290A      3.817590  
     291A      3.844764   292A      3.857620   293A      3.881522  
     294A      3.890524   295A      3.914222   296A      3.918638  
     297A      3.931494   298A      3.938448   299A      3.967321  
     300A      4.000613   301A      4.010148   302A      4.015049  
     303A      4.020796   304A      4.028022   305A      4.045780  
     306A      4.052585   307A      4.066462   308A      4.077678  
     309A      4.134920   310A      4.180208   311A      4.209719  
     312A      4.220410   313A      4.230595   314A      4.247305  
     315A      4.254778   316A      4.270530   317A      4.278490  
     318A      4.286711   319A      4.308535   320A      4.322868  
     321A      4.349739   322A      4.367424   323A      4.375488  
     324A      4.405550   325A      4.426004   326A      4.436531  
     327A      4.537981   328A      4.556695   329A      4.580022  
     330A      4.589197   331A      4.638923   332A      4.665475  
     333A      4.691635   334A      4.706328   335A      4.726341  
     336A      4.742597   337A      4.745259   338A      4.759115  
     339A      4.766236   340A      4.804915   341A      4.812652  
     342A      4.858989   343A      4.870394   344A      4.883746  
     345A      4.888794   346A      4.903524   347A      4.926003  
     348A      4.954142   349A      4.973264   350A      4.998717  
     351A      5.047049   352A      5.062643   353A      5.079955  
     354A      5.102039   355A      5.127129   356A      5.183971  
     357A      5.187609   358A      5.215516   359A      5.224321  
     360A      5.229166   361A      5.257558   362A      5.270998  
     363A      5.273680   364A      5.295634   365A      5.308621  
     366A      5.362448   367A      5.400382   368A      5.424025  
     369A      5.436218   370A      5.441584   371A      5.456646  
     372A      5.461992   373A      5.484101   374A      5.507865  
     375A      5.576880   376A      5.598390   377A      5.627547  
     378A      5.636090   379A      5.685026   380A      5.690904  
     381A      5.694563   382A      5.752545   383A      5.772720  
     384A      5.803212   385A      5.826533   386A      5.878370  
     387A      5.906421   388A      5.921635   389A      5.950996  
     390A      6.032037   391A      6.105554   392A      6.156573  
     393A      6.166917   394A      6.173435   395A      6.255355  
     396A      6.262681   397A      6.279768   398A      6.307585  
     399A      6.311125   400A      6.360853   401A      6.400732  
     402A      6.441572   403A      6.551462   404A      6.558462  
     405A      6.752095   406A      6.783352   407A      6.825168  
     408A      6.842482   409A      6.862515   410A      6.984370  
     411A     18.017694   412A     18.376602   413A     18.464923  
     414A     18.898902  

    Final Occupation by Irrep:
              A 
    DOCC [    17 ]

  Energy converged.

  @DF-RHF Final Energy:  -157.35243232639198

   => Energetics <=

    Nuclear Repulsion Energy =            131.8246257053733927
    One-Electron Energy =                -471.7445178808555397
    Two-Electron Energy =                 182.5674598490901417
    DFT Exchange-Correlation Energy =       0.0000000000000000
    Empirical Dispersion Energy =           0.0000000000000000
    PCM Polarization Energy =               0.0000000000000000
    EFP Energy =                            0.0000000000000000
    Total Energy =                       -157.3524323263919769



Properties will be evaluated at   0.000000,   0.000000,   0.000000 Bohr

Properties computed using the SCF density matrix

  Nuclear Dipole Moment: (a.u.)
     X:     0.0019      Y:     0.0008      Z:    -0.0012

  Electronic Dipole Moment: (a.u.)
     X:    -0.0015      Y:    -0.0012      Z:     0.0002

  Dipole Moment: (a.u.)
     X:     0.0004      Y:    -0.0004      Z:    -0.0010     Total:     0.0012

  Dipole Moment: (Debye)
     X:     0.0011      Y:    -0.0011      Z:    -0.0025     Total:     0.0029


*** tstop() called on gpu-1-11.local at Wed Jun 14 14:45:04 2017
Module time:
	user time   =     103.25 seconds =       1.72 minutes
	system time =       1.05 seconds =       0.02 minutes
	total time  =        104 seconds =       1.73 minutes
Total time:
	user time   =     103.26 seconds =       1.72 minutes
	system time =       1.05 seconds =       0.02 minutes
	total time  =        104 seconds =       1.73 minutes

  //>>>>>>>>>>>>>>>>>>>>>>>>>>>>>>>>>>>//
  //               DFMP2               //
  //<<<<<<<<<<<<<<<<<<<<<<<<<<<<<<<<<<<//

   => Loading Basis Set <=

    Name: (AUG-CC-PVTZ AUX)
    Role: RIFIT
    Keyword: DF_BASIS_MP2
    atoms 1-3, 5-6, 8-9, 11-13 entry H          line    29 file /cbio/jclab/home/chayas/anaconda/envs/py35/share/psi4/basis/aug-cc-pvtz-ri.gbs 
    atoms 4, 7, 10, 14         entry C          line   147 file /cbio/jclab/home/chayas/anaconda/envs/py35/share/psi4/basis/aug-cc-pvtz-ri.gbs 

	 --------------------------------------------------------
	                          DF-MP2                         
	      2nd-Order Density-Fitted Moller-Plesset Theory     
	              RMP2 Wavefunction,   1 Threads             
	                                                         
	        Rob Parrish, Justin Turney, Andy Simmonett,      
	           Ed Hohenstein, and C. David Sherrill          
	 --------------------------------------------------------

   => Auxiliary Basis Set <=

  Basis Set: (AUG-CC-PVTZ AUX)
    Blend: AUG-CC-PVTZ-RI
    Number of shells: 252
    Number of basis function: 884
    Number of Cartesian functions: 1094
    Spherical Harmonics?: true
    Max angular momentum: 4

	 --------------------------------------------------------
	                 NBF =   414, NAUX =   884
	 --------------------------------------------------------
	   CLASS    FOCC     OCC    AOCC    AVIR     VIR    FVIR
	   PAIRS       0      17      17     397     397       0
	 --------------------------------------------------------


         ------------------------------------------------------------
                                     CPHF                           
                                  Rob Parrish                       
         ------------------------------------------------------------

  ==> Geometry <==

    Molecular point group: c1
    Full point group: C1

    Geometry (in Angstrom), charge = 0, multiplicity = 1:

       Center              X                  Y                   Z               Mass       
    ------------   -----------------  -----------------  -----------------  -----------------
           H         -2.312793382205     0.057982647118     0.314776029323     1.007825032070
           H         -2.171793382205     1.685982647118    -0.305223970677     1.007825032070
           H         -1.873793382205     0.321982647118    -1.355223970677     1.007825032070
           C         -1.774793382205     0.692982647118    -0.357223970677    12.000000000000
           H          0.252206617795     1.348982647118    -0.635223970677     1.007825032070
           H         -0.185793382205     1.085982647118     1.035776029323     1.007825032070
           C         -0.285793382205     0.713982647118     0.037776029323    12.000000000000
           H         -0.251793382205    -1.349017352882     0.634776029323     1.007825032070
           H          0.187206617795    -1.086017352882    -1.035223970677     1.007825032070
           C          0.286206617795    -0.714017352882    -0.037223970677    12.000000000000
           H          1.892206617795    -0.164017352882     1.278776029323     1.007825032070
           H          2.339206617795    -0.205017352882    -0.409223970677     1.007825032070
           H          2.127206617795    -1.696017352882     0.474776029323     1.007825032070
           C          1.774206617795    -0.693017352882     0.356776029323    12.000000000000

  Nuclear repulsion =  131.824625705373393
  Reference energy  = -157.352432326391977

  ==> Basis Set <==

  Basis Set: AUG-CC-PVTZ
    Blend: AUG-CC-PVTZ
    Number of shells: 146
    Number of basis function: 414
    Number of Cartesian functions: 470
    Spherical Harmonics?: true
    Max angular momentum: 3

  ==> CGRSolver (by Rob Parrish) <==

   Number of roots    =         1
   Preconditioning    =    JACOBI
   Convergence cutoff =     1E-06
   Maximum iterations =       100

  ==> CPHFRHamiltonian (by Rob Parrish) <== 

  ==> DFJK: Density-Fitted J/K Matrices <==

    J tasked:                  Yes
    K tasked:                  Yes
    wK tasked:                  No
    OpenMP threads:              1
    Integrals threads:           1
    Memory (MB):               715
    Algorithm:                Core
    Integral Cache:           NONE
    Schwarz Cutoff:          1E-12
    Fitting Condition:       1E-12

   => Auxiliary Basis Set <=

  Basis Set: (AUG-CC-PVTZ AUX)
    Blend: AUG-CC-PVTZ-JKFIT
    Number of shells: 260
    Number of basis function: 876
    Number of Cartesian functions: 1074
    Spherical Harmonics?: true
    Max angular momentum: 4

  ==> CPHF Iterations <==

  => Iterations <=

             Iter  Converged  Remaining    Residual
  CGR           1          0          1   8.154E-02
  CGR           2          0          1   1.303E-02
  CGR           3          0          1   3.411E-03
  CGR           4          0          1   8.042E-04
  CGR           5          0          1   1.180E-04
  CGR           6          0          1   2.104E-05
  CGR           7          0          1   3.652E-06
  CGR           8          1          0   8.076E-07

    CGRSolver converged.

  ==> DFCorrGrad: Density-Fitted Correlated Gradients <==

    OpenMP threads:              1
    Integrals threads:           1
    Memory (MB):               715
    Schwarz Cutoff:          0E+00
    Fitting Condition:       1E-12

   => Auxiliary Basis Set <=

  Basis Set: (AUG-CC-PVTZ AUX)
    Blend: AUG-CC-PVTZ-JKFIT
    Number of shells: 260
    Number of basis function: 876
    Number of Cartesian functions: 1074
    Spherical Harmonics?: true
    Max angular momentum: 4

	-----------------------------------------------------------
	 ==================> DF-MP2 Energies <==================== 
	-----------------------------------------------------------
	 Reference Energy          =    -157.3524323263919769 [Eh]
	 Singles Energy            =      -0.0000000000000000 [Eh]
	 Same-Spin Energy          =      -0.1653751549327140 [Eh]
	 Opposite-Spin Energy      =      -0.6387016000789257 [Eh]
	 Correlation Energy        =      -0.8040767550116397 [Eh]
	 Total Energy              =    -158.1565090814036125 [Eh]
	-----------------------------------------------------------
	 ================> DF-SCS-MP2 Energies <================== 
	-----------------------------------------------------------
	 SCS Same-Spin Scale       =       0.3333333333333333 [-]
	 SCS Opposite-Spin Scale   =       1.2000000000000000 [-]
	 SCS Same-Spin Energy      =      -0.0551250516442380 [Eh]
	 SCS Opposite-Spin Energy  =      -0.7664419200947109 [Eh]
	 SCS Correlation Energy    =      -0.8215669717389489 [Eh]
	 SCS Total Energy          =    -158.1739992981309229 [Eh]
	-----------------------------------------------------------


  -Total Gradient:
     Atom            X                  Y                   Z
    ------   -----------------  -----------------  -----------------
       1        0.007855468092     0.006776548430    -0.006362764534
       2        0.008160748451    -0.009358234839     0.000622052639
       3        0.003327031348     0.004156963443     0.011232412262
       4       -0.025232564075    -0.007074672228    -0.007862662600
       5       -0.007837109344    -0.008390642818     0.006035928078
       6       -0.003149788051    -0.005425365686    -0.011439445916
       7        0.021847972043     0.030968111177     0.011818946462
       8        0.008137786081     0.008075315894    -0.006563427946
       9        0.003476860033     0.006002558483     0.011328405827
      10       -0.021149849388    -0.031105662775    -0.011060894776
      11       -0.003430173954    -0.005346124301    -0.010575051643
      12       -0.008239394164    -0.005732508269     0.006926072936
      13       -0.008074247870     0.010029250006    -0.001711177534
      14        0.024307260797     0.006424463483     0.007611606742


*** tstop() called on gpu-1-11.local at Wed Jun 14 14:51:21 2017
Module time:
	user time   =     474.46 seconds =       7.91 minutes
	system time =       6.08 seconds =       0.10 minutes
	total time  =        481 seconds =       8.02 minutes
Total time:
	user time   =     474.47 seconds =       7.91 minutes
	system time =       6.08 seconds =       0.10 minutes
	total time  =        481 seconds =       8.02 minutes

			-----------------------------------------
			 OPTKING 2.0: for geometry optimizations 
			  - R.A. King,  Bethel University        
			-----------------------------------------

	Internal coordinates to be generated automatically.
	Detected frag 1 with atoms:  1 2 3 4 5 6 7 8 9 10 11 12 13 14
	---Fragment 1 Bond Connectivity---
	 1 : 4
	 2 : 4
	 3 : 4
	 4 : 1 2 3 7
	 5 : 7
	 6 : 7
	 7 : 4 5 6 10
	 8 : 10
	 9 : 10
	 10 : 7 8 9 14
	 11 : 14
	 12 : 14
	 13 : 14
	 14 : 10 11 12 13

	Assuming in current code that numbering for constraints corresponds to unified fragment.
	Fixed dihedral atom list: 
	     7    10    14    13
	---Fragment 1 Geometry and Gradient---
	 H          -4.3705460943        0.1095713235        0.5948404886
	 H          -4.1040947096        3.1860454679       -0.5767897138
	 H          -3.5409563220        0.6084590226       -2.5610021533
	 C          -3.3538734348        1.3095474179       -0.6750554727
	 H           0.4766014365        2.5492077611       -1.2003993376
	 H          -0.3510986097        2.0522097881        1.9573330304
	 C          -0.5400712230        1.3492316667        0.0713863498
	 H          -0.4758205344       -2.5492733455        1.1995528511
	 H           0.3537692379       -2.0522753725       -1.9562897908
	 C           0.5408521251       -1.3492972511       -0.0703431102
	 H           3.5757522945       -0.3099478780        2.4165364807
	 H           4.4204598759       -0.3874266494       -0.7733212316
	 H           4.0198379357       -3.2050083136        0.8971966699
	 C           3.3527646108       -1.3096130023        0.6742089862
	             0.0078554681        0.0067765484       -0.0063627645
	             0.0081607485       -0.0093582348        0.0006220526
	             0.0033270313        0.0041569634        0.0112324123
	            -0.0252325641       -0.0070746722       -0.0078626626
	            -0.0078371093       -0.0083906428        0.0060359281
	            -0.0031497881       -0.0054253657       -0.0114394459
	             0.0218479720        0.0309681112        0.0118189465
	             0.0081377861        0.0080753159       -0.0065634279
	             0.0034768600        0.0060025585        0.0113284058
	            -0.0211498494       -0.0311056628       -0.0110608948
	            -0.0034301740       -0.0053461243       -0.0105750516
	            -0.0082393942       -0.0057325083        0.0069260729
	            -0.0080742479        0.0100292500       -0.0017111775
	             0.0243072608        0.0064244635        0.0076116067

	Previous optimization step data not found.  Starting new optimization.

	---Fragment 1 Intrafragment Coordinates---
	 - Coordinate -           - BOHR/RAD -       - ANG/DEG -
	 R(1,4)           =         2.021436	       1.069698
	 R(2,4)           =         2.023298	       1.070683
	 R(3,4)           =         2.020723	       1.069320
	 R(4,7)           =         2.911397	       1.540645
	 R(5,7)           =         2.022623	       1.070326
	 R(6,7)           =         2.021555	       1.069761
	 R(7,10)          =         2.910419	       1.540128
	 R(8,10)          =         2.021436	       1.069698
	 R(9,10)          =         2.021379	       1.069668
	 R(10,14)         =         2.909087	       1.539422
	 R(11,14)         =         2.021079	       1.069509
	 R(12,14)         =         2.021322	       1.069638
	 R(13,14)         =         2.021691	       1.069833
	 B(1,4,2)         =         1.910870	     109.484805
	 B(1,4,3)         =         1.911121	     109.499161
	 B(1,4,7)         =         1.910399	     109.457783
	 B(2,4,3)         =         1.910042	     109.437340
	 B(2,4,7)         =         1.910564	     109.467262
	 B(3,4,7)         =         1.910803	     109.480971
	 B(4,7,5)         =         1.909937	     109.431343
	 B(4,7,6)         =         1.911630	     109.528316
	 B(4,7,10)        =         1.911154	     109.501062
	 B(5,7,6)         =         1.910605	     109.469614
	 B(5,7,10)        =         1.910047	     109.437654
	 B(6,7,10)        =         1.910425	     109.459295
	 B(7,10,8)        =         1.910303	     109.452301
	 B(7,10,9)        =         1.910824	     109.482155
	 B(7,10,14)       =         1.911213	     109.504437
	 B(8,10,9)        =         1.910417	     109.458846
	 B(8,10,14)       =         1.910766	     109.478806
	 B(9,10,14)       =         1.910276	     109.450772
	 B(10,14,11)      =         1.911376	     109.513765
	 B(10,14,12)      =         1.910820	     109.481896
	 B(10,14,13)      =         1.911740	     109.534636
	 B(11,14,12)      =         1.910727	     109.476586
	 B(11,14,13)      =         1.909464	     109.404234
	 B(12,14,13)      =         1.909672	     109.416133
	 D(1,4,7,5)       =         3.140997	     179.965873
	 D(1,4,7,6)       =        -1.047644	     -60.025575
	 D(1,4,7,10)      =         1.047427	      60.013132
	 D(2,4,7,5)       =        -1.047689	     -60.028143
	 D(2,4,7,6)       =         1.046856	      59.980409
	 D(2,4,7,10)      =        -3.141259	    -179.980883
	 D(3,4,7,5)       =         1.046044	      59.933911
	 D(3,4,7,6)       =         3.140588	     179.942463
	 D(3,4,7,10)      =        -1.047526	     -60.018830
	 D(4,7,10,8)      =        -1.047368	     -60.009777
	 D(4,7,10,9)      =         1.046677	      59.970178
	 D(4,7,10,14)     =         3.141107	     179.972182
	 D(5,7,10,8)      =        -3.140871	    -179.958653
	 D(5,7,10,9)      =        -1.046826	     -59.978698
	 D(5,7,10,14)     =         1.047604	      60.023306
	 D(6,7,10,8)      =         1.048439	      60.071149
	 D(6,7,10,9)      =        -3.140701	    -179.948896
	 D(6,7,10,14)     =        -1.046271	     -59.946893
	 D(7,10,14,11)    =         0.872604	      49.996551
	 D(7,10,14,12)    =        -1.222475	     -70.042647
	 D(7,10,14,13)    =         2.966701	     169.979442
	 D(8,10,14,11)    =        -1.221822	     -70.005271
	 D(8,10,14,12)    =         2.966284	     169.955531
	 D(8,10,14,13)    =         0.872274	      49.977620
	 D(9,10,14,11)    =         2.967370	     170.017758
	 D(9,10,14,12)    =         0.872290	      49.978561
	 D(9,10,14,13)    =        -1.221719	     -69.999351

	Current energy   :      -158.1565090814

	Generating empirical Hessian (Schlegel '84) for each fragment.
	Adding user-defined constraint: Fragment 1; Coordinate 58:
		Value =     2.966701; Fixed value    =     2.967060
		Force =     0.000179; Force constant =     0.500000
	Removing off-diagonal coupling between coordinate 58 and others.
	Taking RFO optimization step.
	Going to follow RFO solution 1.
	Using RFO vector 1.

	Determining step-restricting scale parameter for RS-RFO.
	Maximum step size allowed    0.10000

	 Iter      |step|        alpha        rfo_root  
	------------------------------------------------
	    0     0.18619       1.00000           1
	    1     0.14622       6.69833           1
	    2     0.11807      18.37691           1
	    3     0.10407      29.96630           1
	    4     0.10028      34.24430           1
	    5     0.10000      34.57850           1
	------------------------------------------------
	Norm of target step-size    0.10000
	Projected energy change by RFO approximation:        -0.0042772790

	Back-transformation to cartesian coordinates...
	Could not converge backtransformation.
	Using first guess instead.

	--- Internal Coordinate Step in ANG or DEG, aJ/ANG or AJ/DEG ---
	 ---------------------------------------------------------------------------
	   Coordinate                Previous        Force       Change         New 
	   ----------                --------       ------       ------       ------
	    1 R(1,4)          =      1.069698     0.098624     0.012151     1.081849
	    2 R(2,4)          =      1.070683     0.096187     0.011869     1.082552
	    3 R(3,4)          =      1.069320     0.100789     0.012405     1.081726
	    4 R(4,7)          =      1.540645    -0.052520    -0.007683     1.532962
	    5 R(5,7)          =      1.070326     0.104735     0.012873     1.083199
	    6 R(6,7)          =      1.069761     0.105893     0.012997     1.082757
	    7 R(7,10)         =      1.540128    -0.075424    -0.010943     1.529184
	    8 R(8,10)         =      1.069698     0.107184     0.013153     1.082851
	    9 R(9,10)         =      1.069668     0.106928     0.013123     1.082790
	   10 R(10,14)        =      1.539422    -0.041693    -0.006066     1.533356
	   11 R(11,14)        =      1.069509     0.100012     0.012331     1.081840
	   12 R(12,14)        =      1.069638     0.098267     0.012101     1.081739
	   13 R(13,14)        =      1.069833     0.100971     0.012430     1.082262
	   14 B(1,4,2)        =    109.484805    -0.000248    -0.579841   108.904964
	   15 B(1,4,3)        =    109.499161    -0.000172    -0.461300   109.037862
	   16 B(1,4,7)        =    109.457783     0.000127     0.287486   109.745269
	   17 B(2,4,3)        =    109.437340    -0.000246    -0.570536   108.866805
	   18 B(2,4,7)        =    109.467262     0.000411     1.013836   110.481098
	   19 B(3,4,7)        =    109.480971     0.000129     0.294672   109.775643
	   20 B(4,7,5)        =    109.431343    -0.000122    -0.152325   109.279018
	   21 B(4,7,6)        =    109.528316    -0.000119    -0.151128   109.377188
	   22 B(4,7,10)       =    109.501062     0.000634     1.378203   110.879265
	   23 B(5,7,6)        =    109.469614     0.000010    -0.234962   109.234652
	   24 B(5,7,10)       =    109.437654    -0.000193    -0.397115   109.040539
	   25 B(6,7,10)       =    109.459295    -0.000211    -0.452762   109.006533
	   26 B(7,10,8)       =    109.452301    -0.000203    -0.443095   109.009206
	   27 B(7,10,9)       =    109.482155    -0.000216    -0.450159   109.031996
	   28 B(7,10,14)      =    109.504437     0.000641     1.393407   110.897844
	   29 B(8,10,9)       =    109.458846     0.000008    -0.244811   109.214035
	   30 B(8,10,14)      =    109.478806    -0.000110    -0.115221   109.363585
	   31 B(9,10,14)      =    109.450772    -0.000120    -0.150895   109.299878
	   32 B(10,14,11)     =    109.513765     0.000119     0.254523   109.768288
	   33 B(10,14,12)     =    109.481896     0.000156     0.373904   109.855800
	   34 B(10,14,13)     =    109.534636     0.000405     0.998606   110.533242
	   35 B(11,14,12)     =    109.476586    -0.000182    -0.485259   108.991328
	   36 B(11,14,13)     =    109.404234    -0.000245    -0.599819   108.804415
	   37 B(12,14,13)     =    109.416133    -0.000253    -0.560721   108.855412
	   38 D(1,4,7,5)      =    179.965873     0.000010     0.144245   180.110118
	   39 D(1,4,7,6)      =    -60.025575    -0.000021    -0.327131   -60.352706
	   40 D(1,4,7,10)     =     60.013132    -0.000008    -0.123825    59.889308
	   41 D(2,4,7,5)      =    -60.028143     0.000016     0.239954   -59.788189
	   42 D(2,4,7,6)      =     59.980409    -0.000015    -0.231422    59.748987
	   43 D(2,4,7,10)     =   -179.980883    -0.000002    -0.028116  -180.008999
	   44 D(3,4,7,5)      =     59.933911     0.000023     0.351698    60.285609
	   45 D(3,4,7,6)      =    179.942463    -0.000008    -0.119678   179.822785
	   46 D(3,4,7,10)     =    -60.018830     0.000005     0.083628   -59.935201
	   47 D(4,7,10,8)     =    -60.009777     0.000028     0.406958   -59.602819
	   48 D(4,7,10,9)     =     59.970178    -0.000028    -0.426377    59.543801
	   49 D(4,7,10,14)    =    179.972182    -0.000002    -0.033806   179.938376
	   50 D(5,7,10,8)     =   -179.958653     0.000001    -0.006820  -179.965473
	   51 D(5,7,10,9)     =    -59.978698    -0.000056    -0.840156   -60.818853
	   52 D(5,7,10,14)    =     60.023306    -0.000030    -0.447584    59.575722
	   53 D(6,7,10,8)     =     60.071149     0.000054     0.788372    60.859520
	   54 D(6,7,10,9)     =   -179.948896    -0.000002    -0.044964  -179.993860
	   55 D(6,7,10,14)    =    -59.946893     0.000024     0.347608   -59.599285
	   56 D(7,10,14,11)   =     49.996551     0.000002     0.027128    50.023679
	   57 D(7,10,14,12)   =    -70.042647     0.000014     0.235046   -69.807601
	   58 D(7,10,14,13)   =    169.979442     0.000007     0.068869   170.048310
	   59 D(8,10,14,11)   =    -70.005271    -0.000016    -0.219280   -70.224551
	   60 D(8,10,14,12)   =    169.955531    -0.000003    -0.011362   169.944169
	   61 D(8,10,14,13)   =     49.977620    -0.000011    -0.177540    49.800080
	   62 D(9,10,14,11)   =    170.017758     0.000014     0.241257   170.259015
	   63 D(9,10,14,12)   =     49.978561     0.000027     0.449175    50.427735
	   64 D(9,10,14,13)   =    -69.999351     0.000019     0.282997   -69.716354
	 ---------------------------------------------------------------------------
	Successfully symmetrized geometry.
	 Forces used to impose fixed constraints are not included.
	  Forces zeroed: 58 

  ==> Convergence Check <==

  Measures of convergence in internal coordinates in au.
  Criteria marked as inactive (o), active & met (*), and active & unmet ( ).
  --------------------------------------------------------------------------------------------- ~
   Step     Total Energy     Delta E     MAX Force     RMS Force      MAX Disp      RMS Disp    ~
  --------------------------------------------------------------------------------------------- ~
    Convergence Criteria    1.00e-06 *    3.00e-04 *             o    1.20e-03 *             o  ~
  --------------------------------------------------------------------------------------------- ~
      1    -158.15650908   -1.58e+02      1.30e-02      5.63e-03 o    2.49e-02      1.25e-02 o  ~
  ---------------------------------------------------------------------------------------------

	Writing optimization data to binary file.
	Structure for next step:
	Cartesian Geometry (in Angstrom)
	    H    -2.3296501870   0.0588447929   0.3179725199
	    H    -2.1861788159   1.6988786774  -0.3072700148
	    H    -1.8869372118   0.3248309451  -1.3664403204
	    C    -1.7765143951   0.6980774219  -0.3571713040
	    H     0.2517430115   1.3484683274  -0.6451796701
	    H    -0.1909586634   1.0825320887   1.0435275689
	    C    -0.2943060779   0.7051017228   0.0339588758
	    H    -0.2528409639  -1.3477289215   0.6453867209
	    H     0.1907299149  -1.0826935416  -1.0427298104
	    C     0.2937709509  -0.7048822785  -0.0332368527
	    H     1.9074080612  -0.1669382113   1.2898083526
	    H     2.3565565168  -0.2059499815  -0.4128219608
	    H     2.1423026886  -1.7096678389   0.4766116190
	    C     1.7767678203  -0.6981161432   0.3564486865
			--------------------------
			 OPTKING Finished Execution 
			--------------------------

    Structure for next step:
    Molecular point group: c1
    Full point group: C1

    Geometry (in Angstrom), charge = 0, multiplicity = 1:

    H           -2.329629713599     0.058797451203     0.317992338205
    H           -2.186158342547     1.698831335745    -0.307250196502
    H           -1.886916738408     0.324783603361    -1.366420502130
    C           -1.776493921785     0.698030080243    -0.357151485781
    H            0.251763484872     1.348420985678    -0.645159851810
    H           -0.190938190050     1.082484746972     1.043547387113
    C           -0.294285604494     0.705054381095     0.033978694029
    H           -0.252820490586    -1.347776263186     0.645406539187
    H            0.190750388238    -1.082740883251    -1.042709992104
    C            0.293791424229    -0.704929620202    -0.033217034463
    H            1.907428534584    -0.166985553037     1.289828170852
    H            2.356576990148    -0.205997323227    -0.412802142493
    H            2.142323161969    -1.709715180547     0.476631437311
    C            1.776788293631    -0.698163484891     0.356468504795

gradient() will perform analytic gradient computation.

*** tstart() called on gpu-1-11.local
*** at Wed Jun 14 14:51:21 2017

    SCF Algorithm Type (re)set to DF.

*** tstart() called on gpu-1-11.local
*** at Wed Jun 14 14:51:21 2017

   => Loading Basis Set <=

    Name: AUG-CC-PVTZ
    Role: ORBITAL
    Keyword: BASIS
    atoms 1-3, 5-6, 8-9, 11-13 entry H          line    34 file /cbio/jclab/home/chayas/anaconda/envs/py35/share/psi4/basis/aug-cc-pvtz.gbs 
    atoms 4, 7, 10, 14         entry C          line   221 file /cbio/jclab/home/chayas/anaconda/envs/py35/share/psi4/basis/aug-cc-pvtz.gbs 


         ---------------------------------------------------------
                                   SCF
            by Justin Turney, Rob Parrish, and Andy Simmonett
                              RHF Reference
                        1 Threads,    953 MiB Core
         ---------------------------------------------------------

  ==> Geometry <==

    Molecular point group: c1
    Full point group: C1

    Geometry (in Angstrom), charge = 0, multiplicity = 1:

       Center              X                  Y                   Z               Mass       
    ------------   -----------------  -----------------  -----------------  -----------------
           H         -2.329629713599     0.058797451203     0.317992338205     1.007825032070
           H         -2.186158342547     1.698831335745    -0.307250196502     1.007825032070
           H         -1.886916738408     0.324783603361    -1.366420502130     1.007825032070
           C         -1.776493921785     0.698030080243    -0.357151485781    12.000000000000
           H          0.251763484872     1.348420985678    -0.645159851810     1.007825032070
           H         -0.190938190050     1.082484746972     1.043547387113     1.007825032070
           C         -0.294285604494     0.705054381095     0.033978694029    12.000000000000
           H         -0.252820490586    -1.347776263186     0.645406539187     1.007825032070
           H          0.190750388238    -1.082740883251    -1.042709992104     1.007825032070
           C          0.293791424229    -0.704929620202    -0.033217034463    12.000000000000
           H          1.907428534584    -0.166985553037     1.289828170852     1.007825032070
           H          2.356576990148    -0.205997323227    -0.412802142493     1.007825032070
           H          2.142323161969    -1.709715180547     0.476631437311     1.007825032070
           C          1.776788293631    -0.698163484891     0.356468504795    12.000000000000

  Running in c1 symmetry.

  Rotational constants: A =      0.77655  B =      0.12367  C =      0.11587 [cm^-1]
  Rotational constants: A =  23280.33410  B =   3707.48688  C =   3473.81002 [MHz]
  Nuclear repulsion =  131.462983474710171

  Charge       = 0
  Multiplicity = 1
  Electrons    = 34
  Nalpha       = 17
  Nbeta        = 17

  ==> Algorithm <==

  SCF Algorithm Type is DF.
  DIIS enabled.
  MOM disabled.
  Fractional occupation disabled.
  Guess Type is READ.
  Energy threshold   = 1.00e-10
  Density threshold  = 1.00e-10
  Integral threshold = 0.00e+00

  ==> Primary Basis <==

  Basis Set: AUG-CC-PVTZ
    Blend: AUG-CC-PVTZ
    Number of shells: 146
    Number of basis function: 414
    Number of Cartesian functions: 470
    Spherical Harmonics?: true
    Max angular momentum: 3

   => Loading Basis Set <=

    Name: (AUG-CC-PVTZ AUX)
    Role: JKFIT
    Keyword: DF_BASIS_SCF
    atoms 1-3, 5-6, 8-9, 11-13 entry H          line    69 file /cbio/jclab/home/chayas/anaconda/envs/py35/share/psi4/basis/aug-cc-pvtz-jkfit.gbs 
    atoms 4, 7, 10, 14         entry C          line   161 file /cbio/jclab/home/chayas/anaconda/envs/py35/share/psi4/basis/aug-cc-pvtz-jkfit.gbs 

  Reading orbitals from file 180, no projection.

  ==> Pre-Iterations <==

   -------------------------------------------------------
    Irrep   Nso     Nmo     Nalpha   Nbeta   Ndocc  Nsocc
   -------------------------------------------------------
     A        414     414       0       0       0       0
   -------------------------------------------------------
    Total     414     414      17      17      17       0
   -------------------------------------------------------

  ==> Integral Setup <==

  ==> DFJK: Density-Fitted J/K Matrices <==

    J tasked:                  Yes
    K tasked:                  Yes
    wK tasked:                  No
    OpenMP threads:              1
    Integrals threads:           1
    Memory (MB):               715
    Algorithm:                Core
    Integral Cache:           NONE
    Schwarz Cutoff:          1E-12
    Fitting Condition:       1E-12

   => Auxiliary Basis Set <=

  Basis Set: (AUG-CC-PVTZ AUX)
    Blend: AUG-CC-PVTZ-JKFIT
    Number of shells: 260
    Number of basis function: 876
    Number of Cartesian functions: 1074
    Spherical Harmonics?: true
    Max angular momentum: 4

  Minimum eigenvalue in the overlap matrix is 8.2287531012E-06.
  Using Symmetric Orthogonalization.

  SCF Guess: Orbitals guess was supplied from a previous computation.

  ==> Iterations <==

                           Total Energy        Delta E     RMS |[F,P]|

   @DF-RHF iter   0:  -157.27763285374846   -1.57278e+02   1.26040e-04 
   @DF-RHF iter   1:  -157.35474160036193   -7.71087e-02   5.21618e-05 
   @DF-RHF iter   2:  -157.35501958566516   -2.77985e-04   2.69913e-05 DIIS
   @DF-RHF iter   3:  -157.35507855087008   -5.89652e-05   2.88885e-06 DIIS
   @DF-RHF iter   4:  -157.35508001516234   -1.46429e-06   7.74296e-07 DIIS
   @DF-RHF iter   5:  -157.35508010364043   -8.84781e-08   2.57225e-07 DIIS
   @DF-RHF iter   6:  -157.35508011363032   -9.98989e-09   4.18049e-08 DIIS
   @DF-RHF iter   7:  -157.35508011402450   -3.94181e-10   5.97725e-09 DIIS
   @DF-RHF iter   8:  -157.35508011403238   -7.87281e-12   1.00700e-09 DIIS
   @DF-RHF iter   9:  -157.35508011403377   -1.39266e-12   2.23605e-10 DIIS
   @DF-RHF iter  10:  -157.35508011403272    1.05160e-12   4.82832e-11 DIIS

  ==> Post-Iterations <==

    Orbital Energies (a.u.)
    -----------------------

    Doubly Occupied:                                                      

       1A    -11.210304     2A    -11.209681     3A    -11.203812  
       4A    -11.203699     5A     -1.071393     6A     -0.980009  
       7A     -0.859961     8A     -0.789141     9A     -0.645455  
      10A     -0.584963    11A     -0.572127    12A     -0.571968  
      13A     -0.512829    14A     -0.499797    15A     -0.470278  
      16A     -0.465410    17A     -0.449313  

    Virtual:                                                              

      18A      0.032277    19A      0.036926    20A      0.039684  
      21A      0.040907    22A      0.056580    23A      0.058483  
      24A      0.059594    25A      0.061344    26A      0.081874  
      27A      0.085008    28A      0.096701    29A      0.112293  
      30A      0.123155    31A      0.130775    32A      0.135478  
      33A      0.141681    34A      0.143757    35A      0.146781  
      36A      0.148213    37A      0.159561    38A      0.159724  
      39A      0.168187    40A      0.170547    41A      0.202302  
      42A      0.210298    43A      0.211615    44A      0.229230  
      45A      0.248345    46A      0.249624    47A      0.250495  
      48A      0.269004    49A      0.273137    50A      0.281045  
      51A      0.281924    52A      0.316255    53A      0.318568  
      54A      0.331204    55A      0.337281    56A      0.339338  
      57A      0.347467    58A      0.356861    59A      0.357394  
      60A      0.359110    61A      0.373470    62A      0.373991  
      63A      0.384247    64A      0.388155    65A      0.390281  
      66A      0.391741    67A      0.395295    68A      0.402114  
      69A      0.406685    70A      0.413608    71A      0.424146  
      72A      0.429233    73A      0.442764    74A      0.445879  
      75A      0.454015    76A      0.459797    77A      0.463705  
      78A      0.467518    79A      0.473804    80A      0.475751  
      81A      0.483606    82A      0.490041    83A      0.497837  
      84A      0.505428    85A      0.505659    86A      0.510205  
      87A      0.522452    88A      0.526327    89A      0.528392  
      90A      0.537348    91A      0.547098    92A      0.563294  
      93A      0.565176    94A      0.575009    95A      0.587155  
      96A      0.595894    97A      0.598959    98A      0.612561  
      99A      0.625109   100A      0.635078   101A      0.639480  
     102A      0.655849   103A      0.682048   104A      0.688326  
     105A      0.702643   106A      0.703424   107A      0.764086  
     108A      0.777850   109A      0.796340   110A      0.815690  
     111A      0.822993   112A      0.826919   113A      0.836631  
     114A      0.842608   115A      0.845620   116A      0.857231  
     117A      0.861574   118A      0.863803   119A      0.885230  
     120A      0.890042   121A      0.896266   122A      0.900368  
     123A      0.908012   124A      0.919598   125A      0.922102  
     126A      0.931426   127A      0.938166   128A      0.943631  
     129A      0.948979   130A      0.958017   131A      0.963882  
     132A      0.967190   133A      0.982567   134A      0.989505  
     135A      0.995339   136A      1.008204   137A      1.011415  
     138A      1.030309   139A      1.047592   140A      1.055599  
     141A      1.069671   142A      1.077741   143A      1.094667  
     144A      1.102966   145A      1.109159   146A      1.125220  
     147A      1.128959   148A      1.132179   149A      1.137440  
     150A      1.158319   151A      1.162334   152A      1.166119  
     153A      1.170316   154A      1.194394   155A      1.201237  
     156A      1.213821   157A      1.222834   158A      1.241345  
     159A      1.250670   160A      1.252576   161A      1.257359  
     162A      1.262348   163A      1.271993   164A      1.277658  
     165A      1.286155   166A      1.301009   167A      1.310020  
     168A      1.327049   169A      1.338217   170A      1.351714  
     171A      1.357848   172A      1.372582   173A      1.393458  
     174A      1.424911   175A      1.429172   176A      1.435102  
     177A      1.458812   178A      1.482821   179A      1.494433  
     180A      1.499447   181A      1.526550   182A      1.531085  
     183A      1.549161   184A      1.556830   185A      1.573913  
     186A      1.583589   187A      1.594707   188A      1.613808  
     189A      1.625955   190A      1.633392   191A      1.641356  
     192A      1.643508   193A      1.681535   194A      1.685574  
     195A      1.698830   196A      1.699859   197A      1.708211  
     198A      1.711047   199A      1.733940   200A      1.741077  
     201A      1.747928   202A      1.758654   203A      1.760344  
     204A      1.774822   205A      1.780433   206A      1.785323  
     207A      1.791795   208A      1.797678   209A      1.826219  
     210A      1.847605   211A      1.858935   212A      1.867806  
     213A      1.885006   214A      1.894621   215A      1.917271  
     216A      1.920708   217A      1.959427   218A      1.970447  
     219A      1.974039   220A      1.981371   221A      1.988155  
     222A      1.992225   223A      2.026965   224A      2.043286  
     225A      2.054633   226A      2.065586   227A      2.093804  
     228A      2.100605   229A      2.139043   230A      2.146022  
     231A      2.155181   232A      2.177647   233A      2.189134  
     234A      2.209343   235A      2.241646   236A      2.251482  
     237A      2.254575   238A      2.285138   239A      2.299811  
     240A      2.311463   241A      2.324218   242A      2.327263  
     243A      2.331867   244A      2.342566   245A      2.373381  
     246A      2.379900   247A      2.430623   248A      2.452324  
     249A      2.472839   250A      2.474747   251A      2.506174  
     252A      2.537228   253A      2.605104   254A      2.613444  
     255A      2.651394   256A      2.677408   257A      2.701766  
     258A      2.897395   259A      2.910821   260A      3.026674  
     261A      3.240077   262A      3.253120   263A      3.267647  
     264A      3.388714   265A      3.409046   266A      3.426498  
     267A      3.456001   268A      3.465368   269A      3.474838  
     270A      3.482402   271A      3.516301   272A      3.533329  
     273A      3.571793   274A      3.579809   275A      3.593973  
     276A      3.602845   277A      3.632626   278A      3.658173  
     279A      3.684568   280A      3.684850   281A      3.717761  
     282A      3.723255   283A      3.730181   284A      3.739450  
     285A      3.749896   286A      3.761205   287A      3.789813  
     288A      3.792114   289A      3.809290   290A      3.816024  
     291A      3.847174   292A      3.856570   293A      3.878641  
     294A      3.886741   295A      3.911964   296A      3.916786  
     297A      3.927216   298A      3.939031   299A      3.964290  
     300A      3.992002   301A      3.997901   302A      4.001508  
     303A      4.014404   304A      4.019018   305A      4.040033  
     306A      4.049458   307A      4.057750   308A      4.063690  
     309A      4.133508   310A      4.179404   311A      4.201799  
     312A      4.210916   313A      4.219024   314A      4.231743  
     315A      4.239931   316A      4.260908   317A      4.269210  
     318A      4.280168   319A      4.293089   320A      4.311795  
     321A      4.340254   322A      4.359707   323A      4.361170  
     324A      4.397761   325A      4.411612   326A      4.418796  
     327A      4.525680   328A      4.535740   329A      4.564837  
     330A      4.580256   331A      4.624520   332A      4.647741  
     333A      4.672244   334A      4.691825   335A      4.710095  
     336A      4.724321   337A      4.725661   338A      4.744271  
     339A      4.757016   340A      4.781282   341A      4.790715  
     342A      4.834992   343A      4.854527   344A      4.867725  
     345A      4.873069   346A      4.887996   347A      4.909936  
     348A      4.938028   349A      4.951789   350A      4.991706  
     351A      5.031644   352A      5.046365   353A      5.052012  
     354A      5.078054   355A      5.111884   356A      5.163720  
     357A      5.177781   358A      5.192642   359A      5.201879  
     360A      5.221043   361A      5.235120   362A      5.243720  
     363A      5.248734   364A      5.273791   365A      5.293110  
     366A      5.342598   367A      5.383891   368A      5.395557  
     369A      5.412102   370A      5.419990   371A      5.436320  
     372A      5.451864   373A      5.462791   374A      5.479492  
     375A      5.546570   376A      5.568268   377A      5.595374  
     378A      5.609324   379A      5.657470   380A      5.674542  
     381A      5.695951   382A      5.730949   383A      5.732784  
     384A      5.759660   385A      5.817098   386A      5.827339  
     387A      5.864674   388A      5.890292   389A      5.914150  
     390A      6.002367   391A      6.049531   392A      6.111327  
     393A      6.130679   394A      6.150784   395A      6.218760  
     396A      6.223888   397A      6.238347   398A      6.257513  
     399A      6.273009   400A      6.328755   401A      6.383995  
     402A      6.388355   403A      6.544364   404A      6.551132  
     405A      6.739750   406A      6.778237   407A      6.822019  
     408A      6.836885   409A      6.858554   410A      6.987625  
     411A     17.928319   412A     18.193210   413A     18.258368  
     414A     18.847087  

    Final Occupation by Irrep:
              A 
    DOCC [    17 ]

  Energy converged.

  @DF-RHF Final Energy:  -157.35508011403272

   => Energetics <=

    Nuclear Repulsion Energy =            131.4629834747101711
    One-Electron Energy =                -471.0358471931107260
    Two-Electron Energy =                 182.2177836043678099
    DFT Exchange-Correlation Energy =       0.0000000000000000
    Empirical Dispersion Energy =           0.0000000000000000
    PCM Polarization Energy =               0.0000000000000000
    EFP Energy =                            0.0000000000000000
    Total Energy =                       -157.3550801140327167



Properties will be evaluated at   0.000000,   0.000000,   0.000000 Bohr

Properties computed using the SCF density matrix

  Nuclear Dipole Moment: (a.u.)
     X:     0.0022      Y:     0.0001      Z:    -0.0009

  Electronic Dipole Moment: (a.u.)
     X:    -0.0020      Y:    -0.0001      Z:     0.0001

  Dipole Moment: (a.u.)
     X:     0.0002      Y:     0.0000      Z:    -0.0008     Total:     0.0008

  Dipole Moment: (Debye)
     X:     0.0005      Y:     0.0001      Z:    -0.0021     Total:     0.0021


*** tstop() called on gpu-1-11.local at Wed Jun 14 14:52:45 2017
Module time:
	user time   =      82.76 seconds =       1.38 minutes
	system time =       0.97 seconds =       0.02 minutes
	total time  =         84 seconds =       1.40 minutes
Total time:
	user time   =     557.31 seconds =       9.29 minutes
	system time =       7.16 seconds =       0.12 minutes
	total time  =        565 seconds =       9.42 minutes

  //>>>>>>>>>>>>>>>>>>>>>>>>>>>>>>>>>>>//
  //               DFMP2               //
  //<<<<<<<<<<<<<<<<<<<<<<<<<<<<<<<<<<<//

   => Loading Basis Set <=

    Name: (AUG-CC-PVTZ AUX)
    Role: RIFIT
    Keyword: DF_BASIS_MP2
    atoms 1-3, 5-6, 8-9, 11-13 entry H          line    29 file /cbio/jclab/home/chayas/anaconda/envs/py35/share/psi4/basis/aug-cc-pvtz-ri.gbs 
    atoms 4, 7, 10, 14         entry C          line   147 file /cbio/jclab/home/chayas/anaconda/envs/py35/share/psi4/basis/aug-cc-pvtz-ri.gbs 

	 --------------------------------------------------------
	                          DF-MP2                         
	      2nd-Order Density-Fitted Moller-Plesset Theory     
	              RMP2 Wavefunction,   1 Threads             
	                                                         
	        Rob Parrish, Justin Turney, Andy Simmonett,      
	           Ed Hohenstein, and C. David Sherrill          
	 --------------------------------------------------------

   => Auxiliary Basis Set <=

  Basis Set: (AUG-CC-PVTZ AUX)
    Blend: AUG-CC-PVTZ-RI
    Number of shells: 252
    Number of basis function: 884
    Number of Cartesian functions: 1094
    Spherical Harmonics?: true
    Max angular momentum: 4

	 --------------------------------------------------------
	                 NBF =   414, NAUX =   884
	 --------------------------------------------------------
	   CLASS    FOCC     OCC    AOCC    AVIR     VIR    FVIR
	   PAIRS       0      17      17     397     397       0
	 --------------------------------------------------------


         ------------------------------------------------------------
                                     CPHF                           
                                  Rob Parrish                       
         ------------------------------------------------------------

  ==> Geometry <==

    Molecular point group: c1
    Full point group: C1

    Geometry (in Angstrom), charge = 0, multiplicity = 1:

       Center              X                  Y                   Z               Mass       
    ------------   -----------------  -----------------  -----------------  -----------------
           H         -2.329629713599     0.058797451203     0.317992338205     1.007825032070
           H         -2.186158342547     1.698831335745    -0.307250196502     1.007825032070
           H         -1.886916738408     0.324783603361    -1.366420502130     1.007825032070
           C         -1.776493921785     0.698030080243    -0.357151485781    12.000000000000
           H          0.251763484872     1.348420985678    -0.645159851810     1.007825032070
           H         -0.190938190050     1.082484746972     1.043547387113     1.007825032070
           C         -0.294285604494     0.705054381095     0.033978694029    12.000000000000
           H         -0.252820490586    -1.347776263186     0.645406539187     1.007825032070
           H          0.190750388238    -1.082740883251    -1.042709992104     1.007825032070
           C          0.293791424229    -0.704929620202    -0.033217034463    12.000000000000
           H          1.907428534584    -0.166985553037     1.289828170852     1.007825032070
           H          2.356576990148    -0.205997323227    -0.412802142493     1.007825032070
           H          2.142323161969    -1.709715180547     0.476631437311     1.007825032070
           C          1.776788293631    -0.698163484891     0.356468504795    12.000000000000

  Nuclear repulsion =  131.462983474710171
  Reference energy  = -157.355080114032717

  ==> Basis Set <==

  Basis Set: AUG-CC-PVTZ
    Blend: AUG-CC-PVTZ
    Number of shells: 146
    Number of basis function: 414
    Number of Cartesian functions: 470
    Spherical Harmonics?: true
    Max angular momentum: 3

  ==> CGRSolver (by Rob Parrish) <==

   Number of roots    =         1
   Preconditioning    =    JACOBI
   Convergence cutoff =     1E-06
   Maximum iterations =       100

  ==> CPHFRHamiltonian (by Rob Parrish) <== 

  ==> DFJK: Density-Fitted J/K Matrices <==

    J tasked:                  Yes
    K tasked:                  Yes
    wK tasked:                  No
    OpenMP threads:              1
    Integrals threads:           1
    Memory (MB):               715
    Algorithm:                Core
    Integral Cache:           NONE
    Schwarz Cutoff:          1E-12
    Fitting Condition:       1E-12

   => Auxiliary Basis Set <=

  Basis Set: (AUG-CC-PVTZ AUX)
    Blend: AUG-CC-PVTZ-JKFIT
    Number of shells: 260
    Number of basis function: 876
    Number of Cartesian functions: 1074
    Spherical Harmonics?: true
    Max angular momentum: 4

  ==> CPHF Iterations <==

  => Iterations <=

             Iter  Converged  Remaining    Residual
  CGR           1          0          1   8.306E-02
  CGR           2          0          1   1.322E-02
  CGR           3          0          1   3.488E-03
  CGR           4          0          1   8.136E-04
  CGR           5          0          1   1.197E-04
  CGR           6          0          1   2.165E-05
  CGR           7          0          1   3.716E-06
  CGR           8          1          0   8.247E-07

    CGRSolver converged.

  ==> DFCorrGrad: Density-Fitted Correlated Gradients <==

    OpenMP threads:              1
    Integrals threads:           1
    Memory (MB):               715
    Schwarz Cutoff:          0E+00
    Fitting Condition:       1E-12

   => Auxiliary Basis Set <=

  Basis Set: (AUG-CC-PVTZ AUX)
    Blend: AUG-CC-PVTZ-JKFIT
    Number of shells: 260
    Number of basis function: 876
    Number of Cartesian functions: 1074
    Spherical Harmonics?: true
    Max angular momentum: 4

	-----------------------------------------------------------
	 ==================> DF-MP2 Energies <==================== 
	-----------------------------------------------------------
	 Reference Energy          =    -157.3550801140327167 [Eh]
	 Singles Energy            =      -0.0000000000000000 [Eh]
	 Same-Spin Energy          =      -0.1653427241226699 [Eh]
	 Opposite-Spin Energy      =      -0.6391337180672142 [Eh]
	 Correlation Energy        =      -0.8044764421898841 [Eh]
	 Total Energy              =    -158.1595565562226113 [Eh]
	-----------------------------------------------------------
	 ================> DF-SCS-MP2 Energies <================== 
	-----------------------------------------------------------
	 SCS Same-Spin Scale       =       0.3333333333333333 [-]
	 SCS Opposite-Spin Scale   =       1.2000000000000000 [-]
	 SCS Same-Spin Energy      =      -0.0551142413742233 [Eh]
	 SCS Opposite-Spin Energy  =      -0.7669604616806570 [Eh]
	 SCS Correlation Energy    =      -0.8220747030548803 [Eh]
	 SCS Total Energy          =    -158.1771548170875974 [Eh]
	-----------------------------------------------------------


  -Total Gradient:
     Atom            X                  Y                   Z
    ------   -----------------  -----------------  -----------------
       1        0.003406056661     0.002126066263    -0.001279786770
       2        0.003295035175    -0.002171063990     0.000489157656
       3        0.002207608060     0.001445800734     0.003366075262
       4       -0.013533150885    -0.003755515253    -0.004136064903
       5       -0.003391274502    -0.004001152821     0.000234296896
       6       -0.002355664722    -0.003281617053    -0.003129850564
       7        0.012383869836     0.015564499228     0.006729001067
       8        0.003463497041     0.003597911397    -0.000668779162
       9        0.002626310661     0.003817321571     0.002921821716
      10       -0.012278013054    -0.015628466735    -0.006204834301
      11       -0.002148107318    -0.001455067682    -0.003368687984
      12       -0.003424618966    -0.002162686856     0.001242595125
      13       -0.003371997094     0.002376464469    -0.000262635651
      14        0.013120449110     0.003527506729     0.004067691615


*** tstop() called on gpu-1-11.local at Wed Jun 14 14:58:36 2017
Module time:
	user time   =     428.84 seconds =       7.15 minutes
	system time =       5.69 seconds =       0.09 minutes
	total time  =        435 seconds =       7.25 minutes
Total time:
	user time   =     903.39 seconds =      15.06 minutes
	system time =      11.88 seconds =       0.20 minutes
	total time  =        916 seconds =      15.27 minutes

			-----------------------------------------
			 OPTKING 2.0: for geometry optimizations 
			  - R.A. King,  Bethel University        
			-----------------------------------------

	Previous internal coordinate definitions found.
	---Fragment 1 Geometry and Gradient---
	 H          -4.4023621497        0.1111110801        0.6009184316
	 H          -4.1312405505        3.2103259705       -0.5806187257
	 H          -3.5657558711        0.6137520628       -2.5821605314
	 C          -3.3570869889        1.3190856842       -0.6749184961
	 H           0.4757640367        2.5481463748       -1.2191754319
	 H          -0.3608208875        2.0455997148        1.9720187683
	 C          -0.5561191973        1.3323596891        0.0642104261
	 H          -0.4777614880       -2.5469280258        1.2196416034
	 H           0.3604659935       -2.0460837422       -1.9704363211
	 C           0.5551853320       -1.3321239251       -0.0627710981
	 H           3.6045175484       -0.3155569634        2.4374220014
	 H           4.4532851224       -0.3892785250       -0.7800829964
	 H           4.0484040643       -3.2308934565        0.9007028828
	 C           3.3576432711       -1.3193377824        0.6736278491
	             0.0034060567        0.0021260663       -0.0012797868
	             0.0032950352       -0.0021710640        0.0004891577
	             0.0022076081        0.0014458007        0.0033660753
	            -0.0135331509       -0.0037555153       -0.0041360649
	            -0.0033912745       -0.0040011528        0.0002342969
	            -0.0023556647       -0.0032816171       -0.0031298506
	             0.0123838698        0.0155644992        0.0067290011
	             0.0034634970        0.0035979114       -0.0006687792
	             0.0026263107        0.0038173216        0.0029218217
	            -0.0122780131       -0.0156284667       -0.0062048343
	            -0.0021481073       -0.0014550677       -0.0033686880
	            -0.0034246190       -0.0021626869        0.0012425951
	            -0.0033719971        0.0023764645       -0.0002626357
	             0.0131204491        0.0035275067        0.0040676916

	---Fragment 1 Intrafragment Coordinates---
	 - Coordinate -           - BOHR/RAD -       - ANG/DEG -
	 R(1,4)           =         2.044398	       1.081849
	 R(2,4)           =         2.045726	       1.082552
	 R(3,4)           =         2.044165	       1.081726
	 R(4,7)           =         2.896879	       1.532962
	 R(5,7)           =         2.046949	       1.083199
	 R(6,7)           =         2.046115	       1.082757
	 R(7,10)          =         2.889740	       1.529184
	 R(8,10)          =         2.046292	       1.082851
	 R(9,10)          =         2.046177	       1.082790
	 R(10,14)         =         2.897623	       1.533356
	 R(11,14)         =         2.044381	       1.081840
	 R(12,14)         =         2.044191	       1.081739
	 R(13,14)         =         2.045179	       1.082262
	 B(1,4,2)         =         1.900750	     108.904964
	 B(1,4,3)         =         1.903070	     109.037862
	 B(1,4,7)         =         1.915416	     109.745269
	 B(2,4,3)         =         1.900084	     108.866805
	 B(2,4,7)         =         1.928259	     110.481098
	 B(3,4,7)         =         1.915946	     109.775643
	 B(4,7,5)         =         1.907279	     109.279018
	 B(4,7,6)         =         1.908992	     109.377188
	 B(4,7,10)        =         1.935208	     110.879265
	 B(5,7,6)         =         1.906504	     109.234652
	 B(5,7,10)        =         1.903116	     109.040539
	 B(6,7,10)        =         1.902523	     109.006533
	 B(7,10,8)        =         1.902570	     109.009206
	 B(7,10,9)        =         1.902967	     109.031996
	 B(7,10,14)       =         1.935533	     110.897844
	 B(8,10,9)        =         1.906144	     109.214035
	 B(8,10,14)       =         1.908755	     109.363585
	 B(9,10,14)       =         1.907643	     109.299878
	 B(10,14,11)      =         1.915818	     109.768288
	 B(10,14,12)      =         1.917345	     109.855800
	 B(10,14,13)      =         1.929169	     110.533242
	 B(11,14,12)      =         1.902258	     108.991328
	 B(11,14,13)      =         1.898995	     108.804415
	 B(12,14,13)      =         1.899885	     108.855412
	 D(1,4,7,5)       =        -3.139671	    -179.889882
	 D(1,4,7,6)       =        -1.053353	     -60.352706
	 D(1,4,7,10)      =         1.045266	      59.889308
	 D(2,4,7,5)       =        -1.043501	     -59.788189
	 D(2,4,7,6)       =         1.042817	      59.748987
	 D(2,4,7,10)      =         3.141436	     179.991001
	 D(3,4,7,5)       =         1.052182	      60.285609
	 D(3,4,7,6)       =         3.138500	     179.822785
	 D(3,4,7,10)      =        -1.046067	     -59.935201
	 D(4,7,10,8)      =        -1.040265	     -59.602819
	 D(4,7,10,9)      =         1.039235	      59.543801
	 D(4,7,10,14)     =         3.140517	     179.938376
	 D(5,7,10,8)      =        -3.140990	    -179.965473
	 D(5,7,10,9)      =        -1.061489	     -60.818853
	 D(5,7,10,14)     =         1.039793	      59.575722
	 D(6,7,10,8)      =         1.062199	      60.859520
	 D(6,7,10,9)      =        -3.141485	    -179.993860
	 D(6,7,10,14)     =        -1.040204	     -59.599285
	 D(7,10,14,11)    =         0.873078	      50.023679
	 D(7,10,14,12)    =        -1.218372	     -69.807601
	 D(7,10,14,13)    =         2.967903	     170.048310
	 D(8,10,14,11)    =        -1.225650	     -70.224551
	 D(8,10,14,12)    =         2.966085	     169.944169
	 D(8,10,14,13)    =         0.869175	      49.800080
	 D(9,10,14,11)    =         2.971580	     170.259015
	 D(9,10,14,12)    =         0.880130	      50.427735
	 D(9,10,14,13)    =        -1.216780	     -69.716354

	Current energy   :      -158.1595565562

	Energy change for the previous step:
		Projected    :        -0.0042772790
		Actual       :        -0.0030474748

	Performing BFGS update.
	Previous computed or guess Hessian on step 1.
	Steps to be used in Hessian update: 1
	Adding user-defined constraint: Fragment 1; Coordinate 58:
		Value =     2.967903; Fixed value    =     2.967060
		Force =    -0.000443; Force constant =     0.525000
	Removing off-diagonal coupling between coordinate 58 and others.
	Taking RFO optimization step.
	Going to follow RFO solution 1.
	Using RFO vector 1.

	Determining step-restricting scale parameter for RS-RFO.
	Maximum step size allowed    0.10000

	 Iter      |step|        alpha        rfo_root  
	------------------------------------------------
	    0     0.15919       1.00000           1
	    1     0.13182       6.15695           1
	    2     0.11007      15.90806           1
	    3     0.10146      22.27344           1
	    4     0.10004      23.53036           1
	    5     0.10000      23.56512           1
	------------------------------------------------
	Norm of target step-size    0.10000
	Projected energy change by RFO approximation:        -0.0016038641

	Back-transformation to cartesian coordinates...
	Successfully converged to displaced geometry.

	--- Internal Coordinate Step in ANG or DEG, aJ/ANG or AJ/DEG ---
	 ---------------------------------------------------------------------------
	   Coordinate                Previous        Force       Change         New 
	   ----------                --------       ------       ------       ------
	    1 R(1,4)          =      1.081849     0.031277     0.005857     1.087705
	    2 R(2,4)          =      1.082552     0.026623     0.004763     1.087315
	    3 R(3,4)          =      1.081726     0.031841     0.005950     1.087675
	    4 R(4,7)          =      1.532962    -0.040208    -0.010895     1.522068
	    5 R(5,7)          =      1.083199     0.034874     0.006605     1.089804
	    6 R(6,7)          =      1.082757     0.035320     0.006685     1.089442
	    7 R(7,10)         =      1.529184    -0.039471    -0.009887     1.519297
	    8 R(8,10)         =      1.082851     0.035455     0.006694     1.089545
	    9 R(9,10)         =      1.082790     0.035475     0.006704     1.089494
	   10 R(10,14)        =      1.533356    -0.036871    -0.010156     1.523200
	   11 R(11,14)        =      1.081840     0.031968     0.006006     1.087846
	   12 R(12,14)        =      1.081739     0.030509     0.005672     1.087411
	   13 R(13,14)        =      1.082262     0.027923     0.004985     1.087247
	   14 B(1,4,2)        =    108.904964    -0.000155    -0.678650   108.226314
	   15 B(1,4,3)        =    109.037862    -0.000152    -0.819784   108.218078
	   16 B(1,4,7)        =    109.745269     0.000123     0.606043   110.351313
	   17 B(2,4,3)        =    108.866805    -0.000153    -0.663635   108.203169
	   18 B(2,4,7)        =    110.481098     0.000204     0.875947   111.357045
	   19 B(3,4,7)        =    109.775643     0.000124     0.611398   110.387041
	   20 B(4,7,5)        =    109.279018    -0.000026     0.144340   109.423358
	   21 B(4,7,6)        =    109.377188    -0.000026     0.122000   109.499188
	   22 B(4,7,10)       =    110.879265     0.000267     1.123280   112.002545
	   23 B(5,7,6)        =    109.234652    -0.000078    -1.171666   108.062985
	   24 B(5,7,10)       =    109.040539    -0.000065    -0.099448   108.941092
	   25 B(6,7,10)       =    109.006533    -0.000076    -0.179915   108.826618
	   26 B(7,10,8)       =    109.009206    -0.000074    -0.212934   108.796272
	   27 B(7,10,9)       =    109.031996    -0.000072    -0.093315   108.938681
	   28 B(7,10,14)      =    110.897844     0.000269     1.129929   112.027773
	   29 B(8,10,9)       =    109.214035    -0.000079    -1.181053   108.032981
	   30 B(8,10,14)      =    109.363585    -0.000021     0.140022   109.503607
	   31 B(9,10,14)      =    109.299878    -0.000026     0.154193   109.454071
	   32 B(10,14,11)     =    109.768288     0.000111     0.499149   110.267437
	   33 B(10,14,12)     =    109.855800     0.000136     0.699648   110.555448
	   34 B(10,14,13)     =    110.533242     0.000199     0.852075   111.385316
	   35 B(11,14,12)     =    108.991328    -0.000152    -0.811123   108.180205
	   36 B(11,14,13)     =    108.804415    -0.000156    -0.771072   108.033343
	   37 B(12,14,13)     =    108.855412    -0.000147    -0.540023   108.315388
	   38 D(1,4,7,5)      =   -179.889882     0.000011     0.528342  -179.361541
	   39 D(1,4,7,6)      =    -60.352706    -0.000018    -0.738064   -61.090771
	   40 D(1,4,7,10)     =     59.889308    -0.000005    -0.161778    59.727530
	   41 D(2,4,7,5)      =    -59.788189     0.000015     0.641060   -59.147129
	   42 D(2,4,7,6)      =     59.748987    -0.000014    -0.625346    59.123641
	   43 D(2,4,7,10)     =    179.991001    -0.000001    -0.049060   179.941941
	   44 D(3,4,7,5)      =     60.285609     0.000019     0.776427    61.062035
	   45 D(3,4,7,6)      =    179.822785    -0.000010    -0.489979   179.332805
	   46 D(3,4,7,10)     =    -59.935201     0.000003     0.086307   -59.848895
[...]

  => Iterations <=

             Iter  Converged  Remaining    Residual
  CGR           1          0          1   8.473E-02
  CGR           2          0          1   1.341E-02
  CGR           3          0          1   3.543E-03
  CGR           4          0          1   8.154E-04
  CGR           5          0          1   1.194E-04
  CGR           6          0          1   2.202E-05
  CGR           7          0          1   3.830E-06
  CGR           8          1          0   8.740E-07

    CGRSolver converged.

  ==> DFCorrGrad: Density-Fitted Correlated Gradients <==

    OpenMP threads:              1
    Integrals threads:           1
    Memory (MB):               715
    Schwarz Cutoff:          0E+00
    Fitting Condition:       1E-12

   => Auxiliary Basis Set <=

  Basis Set: (AUG-CC-PVTZ AUX)
    Blend: AUG-CC-PVTZ-JKFIT
    Number of shells: 260
    Number of basis function: 876
    Number of Cartesian functions: 1074
    Spherical Harmonics?: true
    Max angular momentum: 4

	-----------------------------------------------------------
	 ==================> DF-MP2 Energies <==================== 
	-----------------------------------------------------------
	 Reference Energy          =    -157.3561019087871955 [Eh]
	 Singles Energy            =      -0.0000000000000000 [Eh]
	 Same-Spin Energy          =      -0.1654611086097921 [Eh]
	 Opposite-Spin Energy      =      -0.6391960296969228 [Eh]
	 Correlation Energy        =      -0.8046571383067149 [Eh]
	 Total Energy              =    -158.1607590470939044 [Eh]
	-----------------------------------------------------------
	 ================> DF-SCS-MP2 Energies <================== 
	-----------------------------------------------------------
	 SCS Same-Spin Scale       =       0.3333333333333333 [-]
	 SCS Opposite-Spin Scale   =       1.2000000000000000 [-]
	 SCS Same-Spin Energy      =      -0.0551537028699307 [Eh]
	 SCS Opposite-Spin Energy  =      -0.7670352356363074 [Eh]
	 SCS Correlation Energy    =      -0.8221889385062381 [Eh]
	 SCS Total Energy          =    -158.1782908472934253 [Eh]
	-----------------------------------------------------------


  -Total Gradient:
     Atom            X                  Y                   Z
    ------   -----------------  -----------------  -----------------
       1       -0.000039702350    -0.000026859028     0.000024848429
       2       -0.000013543292     0.000043424342    -0.000000402610
       3       -0.000016308658    -0.000018630169    -0.000051882689
       4        0.000128567195    -0.000038004067     0.000041752852
       5        0.000015885172     0.000007700638    -0.000033733599
       6       -0.000005595330    -0.000012268453     0.000007189516
       7       -0.000272470319    -0.000143771109     0.001056735029
       8        0.000007673391    -0.000004712345    -0.000002931794
       9        0.000007772952     0.000020371577    -0.000055782439
      10        0.000252918335     0.000209250085    -0.000990648016
      11        0.000021124289     0.000017677060     0.000015576834
      12        0.000039859475     0.000016540196    -0.000054881262
      13       -0.000358354513    -0.000012211571     0.001463293776
      14        0.000232173655    -0.000058507155    -0.001419134027


*** tstop() called on gpu-1-11.local at Wed Jun 14 15:19:30 2017
Module time:
	user time   =     449.49 seconds =       7.49 minutes
	system time =       5.67 seconds =       0.09 minutes
	total time  =        455 seconds =       7.58 minutes
Total time:
	user time   =    2140.04 seconds =      35.67 minutes
	system time =      28.34 seconds =       0.47 minutes
	total time  =       2170 seconds =      36.17 minutes

			-----------------------------------------
			 OPTKING 2.0: for geometry optimizations 
			  - R.A. King,  Bethel University        
			-----------------------------------------

	Previous internal coordinate definitions found.
	---Fragment 1 Geometry and Gradient---
	 H          -4.4435393154        0.0947939266        0.5559980537
	 H          -4.1568862846        3.2054575967       -0.5859641952
	 H          -3.5856035254        0.6279406413       -2.6088516840
	 C          -3.3500477856        1.3178843184       -0.6852669057
	 H           0.4791184964        2.5689177167       -1.1742919349
	 H          -0.3755530613        2.0522757780        1.9752107868
	 C          -0.5834470342        1.3074929754        0.0640478550
	 H          -0.4631558022       -2.5457785708        1.2418792713
	 H           0.3272316656       -2.0918332033       -1.9329480741
	 C           0.5765562227       -1.3108739186       -0.0411780634
	 H           3.6491755736       -0.3248484164        2.4406862251
	 H           4.4821355963       -0.3629048334       -0.7742862039
	 H           4.0809008353       -3.2240186643        0.8917083175
	 C           3.3574572760       -1.3145035408        0.6599497318
	            -0.0000397023       -0.0000268590        0.0000248484
	            -0.0000135433        0.0000434243       -0.0000004026
	            -0.0000163087       -0.0000186302       -0.0000518827
	             0.0001285672       -0.0000380041        0.0000417529
	             0.0000158852        0.0000077006       -0.0000337336
	            -0.0000055953       -0.0000122685        0.0000071895
	            -0.0002724703       -0.0001437711        0.0010567350
	             0.0000076734       -0.0000047123       -0.0000029318
	             0.0000077730        0.0000203716       -0.0000557824
	             0.0002529183        0.0002092501       -0.0009906480
	             0.0000211243        0.0000176771        0.0000155768
	             0.0000398595        0.0000165402       -0.0000548813
	            -0.0003583545       -0.0000122116        0.0014632938
	             0.0002321737       -0.0000585072       -0.0014191340

	---Fragment 1 Intrafragment Coordinates---
	 - Coordinate -           - BOHR/RAD -       - ANG/DEG -
	 R(1,4)           =         2.057283	       1.088667
	 R(2,4)           =         2.055184	       1.087557
	 R(3,4)           =         2.057107	       1.088574
	 R(4,7)           =         2.866297	       1.516779
	 R(5,7)           =         2.062456	       1.091405
	 R(6,7)           =         2.061666	       1.090986
	 R(7,10)          =         2.865750	       1.516490
	 R(8,10)          =         2.062093	       1.091213
	 R(9,10)          =         2.061760	       1.091036
	 R(10,14)         =         2.867927	       1.517641
	 R(11,14)         =         2.058043	       1.089069
	 R(12,14)         =         2.056082	       1.088032
	 R(13,14)         =         2.055074	       1.087499
	 B(1,4,2)         =         1.884107	     107.951382
	 B(1,4,3)         =         1.879609	     107.693657
	 B(1,4,7)         =         1.931732	     110.680078
	 B(2,4,3)         =         1.884170	     107.954972
	 B(2,4,7)         =         1.949407	     111.692805
	 B(3,4,7)         =         1.932388	     110.717696
	 B(4,7,5)         =         1.915687	     109.760794
	 B(4,7,6)         =         1.915969	     109.776951
	 B(4,7,10)        =         1.965371	     112.607477
	 B(5,7,6)         =         1.858437	     106.480618
	 B(5,7,10)        =         1.905224	     109.161276
	 B(6,7,10)        =         1.899999	     108.861933
	 B(7,10,8)        =         1.896764	     108.676551
	 B(7,10,9)        =         1.907975	     109.318939
	 B(7,10,14)       =         1.965656	     112.623783
	 B(8,10,9)        =         1.857822	     106.445343
	 B(8,10,14)       =         1.913496	     109.635272
	 B(9,10,14)       =         1.918878	     109.943583
	 B(10,14,11)      =         1.926625	     110.387462
	 B(10,14,12)      =         1.938296	     111.056178
	 B(10,14,13)      =         1.949904	     111.721280
	 B(11,14,12)      =         1.879133	     107.666391
	 B(11,14,13)      =         1.874792	     107.417696
	 B(12,14,13)      =         1.892462	     108.430060
	 D(1,4,7,5)       =        -3.122828	    -178.924836
	 D(1,4,7,6)       =        -1.085813	     -62.212513
	 D(1,4,7,10)      =         1.034033	      59.245734
	 D(2,4,7,5)       =        -1.022991	     -58.613070
	 D(2,4,7,6)       =         1.014023	      58.099254
	 D(2,4,7,10)      =         3.133870	     179.557500
	 D(3,4,7,5)       =         1.077373	      61.728900
	 D(3,4,7,6)       =         3.114387	     178.441224
	 D(3,4,7,10)      =        -1.048952	     -60.100530
	 D(4,7,10,8)      =        -1.037054	     -59.418836
	 D(4,7,10,9)      =         0.983967	      56.377156
	 D(4,7,10,14)     =         3.122442	     178.902750
	 D(5,7,10,8)      =         3.113889	     178.412700
	 D(5,7,10,9)      =        -1.148275	     -65.791307
	 D(5,7,10,14)     =         0.990200	      56.734287
	 D(6,7,10,8)      =         1.091851	      62.558450
	 D(6,7,10,9)      =         3.112872	     178.354443
	 D(6,7,10,14)     =        -1.031838	     -59.119963
	 D(7,10,14,11)    =         0.885262	      50.721751
	 D(7,10,14,12)    =        -1.197624	     -68.618792
	 D(7,10,14,13)    =         2.970218	     170.180950
	 D(8,10,14,11)    =        -1.228907	     -70.411176
	 D(8,10,14,12)    =         2.971393	     170.248281
	 D(8,10,14,13)    =         0.856049	      49.048023
	 D(9,10,14,11)    =         3.017597	     172.895569
	 D(9,10,14,12)    =         0.934712	      53.555026
	 D(9,10,14,13)    =        -1.180632	     -67.645232

	Current energy   :      -158.1607590471

	Energy change for the previous step:
		Projected    :        -0.0000358060
		Actual       :        -0.0000067646

	Performing BFGS update.
	Previous computed or guess Hessian on step 1.
	Steps to be used in Hessian update: 4 3
	Adding user-defined constraint: Fragment 1; Coordinate 58:
		Value =     2.970218; Fixed value    =     2.967060
		Force =    -0.001895; Force constant =     0.600000
	Removing off-diagonal coupling between coordinate 58 and others.
	Taking RFO optimization step.
	Going to follow RFO solution 1.
	Using RFO vector 1.
	Norm of target step-size    0.00346
	Projected energy change by RFO approximation:        -0.0000008740

	Back-transformation to cartesian coordinates...
	Could not converge backtransformation.
	Using first guess instead.

	--- Internal Coordinate Step in ANG or DEG, aJ/ANG or AJ/DEG ---
	 ---------------------------------------------------------------------------
	   Coordinate                Previous        Force       Change         New 
	   ----------                --------       ------       ------       ------
	    1 R(1,4)          =      1.088667    -0.000429    -0.000085     1.088582
	    2 R(2,4)          =      1.087557    -0.000372    -0.000075     1.087482
	    3 R(3,4)          =      1.088574    -0.000467    -0.000093     1.088481
	    4 R(4,7)          =      1.516779     0.000501     0.000125     1.516904
	    5 R(5,7)          =      1.091405    -0.000273    -0.000056     1.091348
	    6 R(6,7)          =      1.090986    -0.000014    -0.000011     1.090976
	    7 R(7,10)         =      1.516490     0.000425     0.000098     1.516588
	    8 R(8,10)         =      1.091213     0.000024    -0.000002     1.091210
	    9 R(9,10)         =      1.091036    -0.000350    -0.000072     1.090965
	   10 R(10,14)        =      1.517641     0.000511     0.000124     1.517765
	   11 R(11,14)        =      1.089069    -0.000206    -0.000044     1.089025
	   12 R(12,14)        =      1.088032    -0.000558    -0.000110     1.087922
	   13 R(13,14)        =      1.087499    -0.000414    -0.000083     1.087416
	   14 B(1,4,2)        =    107.951382     0.000000     0.002939   107.954321
	   15 B(1,4,3)        =    107.693657     0.000001     0.003735   107.697391
	   16 B(1,4,7)        =    110.680078    -0.000002    -0.009393   110.670685
	   17 B(2,4,3)        =    107.954972     0.000000     0.004477   107.959449
	   18 B(2,4,7)        =    111.692805     0.000001     0.004277   111.697082
	   19 B(3,4,7)        =    110.717696    -0.000001    -0.005523   110.712173
	   20 B(4,7,5)        =    109.760794    -0.000001    -0.002255   109.758539
	   21 B(4,7,6)        =    109.776951    -0.000001    -0.002496   109.774455
	   22 B(4,7,10)       =    112.607477     0.000004     0.015537   112.623014
	   23 B(5,7,6)        =    106.480618    -0.000000    -0.012502   106.468116
	   24 B(5,7,10)       =    109.161276    -0.000001     0.002863   109.164139
	   25 B(6,7,10)       =    108.861933    -0.000001    -0.002710   108.859223
	   26 B(7,10,8)       =    108.676551    -0.000002    -0.017481   108.659070
	   27 B(7,10,9)       =    109.318939     0.000001     0.018585   109.337524
	   28 B(7,10,14)      =    112.623783     0.000002     0.010472   112.634254
	   29 B(8,10,9)       =    106.445343    -0.000000    -0.012936   106.432406
	   30 B(8,10,14)      =    109.635272    -0.000001    -0.008489   109.626783
	   31 B(9,10,14)      =    109.943583    -0.000001     0.008249   109.951832
	   32 B(10,14,11)     =    110.387462    -0.000003    -0.018563   110.368898
	   33 B(10,14,12)     =    111.056178     0.000001     0.004389   111.060567
	   34 B(10,14,13)     =    111.721280     0.000001     0.007666   111.728946
	   35 B(11,14,12)     =    107.666391     0.000001     0.000428   107.666819
	   36 B(11,14,13)     =    107.417696    -0.000001    -0.008094   107.409602
	   37 B(12,14,13)     =    108.430060     0.000001     0.014011   108.444070
	   38 D(1,4,7,5)      =   -178.924836     0.000000    -0.026767  -178.951603
	   39 D(1,4,7,6)      =    -62.212513    -0.000000    -0.044691   -62.257204
	   40 D(1,4,7,10)     =     59.245734    -0.000000    -0.039410    59.206323
	   41 D(2,4,7,5)      =    -58.613070     0.000000    -0.026579   -58.639648
	   42 D(2,4,7,6)      =     58.099254    -0.000000    -0.044503    58.054751
	   43 D(2,4,7,10)     =    179.557500    -0.000000    -0.039222   179.518278
	   44 D(3,4,7,5)      =     61.728900     0.000000    -0.021798    61.707102
	   45 D(3,4,7,6)      =    178.441224    -0.000000    -0.039722   178.401501
	   46 D(3,4,7,10)     =    -60.100530     0.000000    -0.034442   -60.134972
	   47 D(4,7,10,8)     =    -59.418836     0.000000    -0.033797   -59.452633
	   48 D(4,7,10,9)     =     56.377156    -0.000000    -0.048751    56.328406
	   49 D(4,7,10,14)    =    178.902750     0.000000    -0.017698   178.885052
	   50 D(5,7,10,8)     =    178.412700    -0.000000    -0.043406   178.369294
	   51 D(5,7,10,9)     =    -65.791307    -0.000000    -0.058360   -65.849667
	   52 D(5,7,10,14)    =     56.734287     0.000000    -0.027308    56.706979
	   53 D(6,7,10,8)     =     62.558450     0.000000    -0.028577    62.529873
	   54 D(6,7,10,9)     =    178.354443    -0.000000    -0.043531   178.310912
	   55 D(6,7,10,14)    =    -59.119963     0.000000    -0.012478   -59.132441
	   56 D(7,10,14,11)   =     50.721751    -0.000000     0.013677    50.735428
	   57 D(7,10,14,12)   =    -68.618792    -0.000000     0.022396   -68.596395
	   58 D(7,10,14,13)   =    170.180950    -0.000001    -0.003901   170.177049
	   59 D(8,10,14,11)   =    -70.411176     0.000000     0.034892   -70.376284
	   60 D(8,10,14,12)   =    170.248281     0.000000     0.043612   170.291893
	   61 D(8,10,14,13)   =     49.048023    -0.000000     0.017314    49.065337
	   62 D(9,10,14,11)   =    172.895569     0.000000     0.050749   172.946318
	   63 D(9,10,14,12)   =     53.555026     0.000000     0.059469    53.614494
	   64 D(9,10,14,13)   =    -67.645232    -0.000000     0.033171   -67.612061
	 ---------------------------------------------------------------------------
	Successfully symmetrized geometry.
	 Forces used to impose fixed constraints are not included.
	  Forces zeroed: 58 

  ==> Convergence Check <==

  Measures of convergence in internal coordinates in au.
  Criteria marked as inactive (o), active & met (*), and active & unmet ( ).
  ---------------------------------------------------------------------------------------------
   Step     Total Energy     Delta E     MAX Force     RMS Force      MAX Disp      RMS Disp   
  ---------------------------------------------------------------------------------------------
    Convergence Criteria    1.00e-06 *    3.00e-04 *             o    1.20e-03 *             o
  ---------------------------------------------------------------------------------------------
      5    -158.16075905   -6.76e-06      6.77e-05 *    2.54e-05 o    1.04e-03 *    4.32e-04 o  ~
  ---------------------------------------------------------------------------------------------


  **** Optimization is complete! (in 5 steps) ****

  ==> Optimization Summary <==

  Measures of convergence in internal coordinates in au.
  --------------------------------------------------------------------------------------------------------------- ~
   Step         Total Energy             Delta E       MAX Force       RMS Force        MAX Disp        RMS Disp  ~
  --------------------------------------------------------------------------------------------------------------- ~
      1    -158.156509081404   -158.156509081404      0.01300982      0.00562908      0.02485634      0.01250548  ~
      2    -158.159556556223     -0.003047474819      0.00488031      0.00225786      0.02990085      0.01252261  ~
      3    -158.160555502883     -0.000998946661      0.00152148      0.00059592      0.04616798      0.01251755  ~
      4    -158.160752282496     -0.000196779612      0.00054730      0.00014951      0.01071686      0.00324669  ~
      5    -158.160759047094     -0.000006764598      0.00006774      0.00002598      0.00103793      0.00043211  ~
  --------------------------------------------------------------------------------------------------------------- ~

	Writing optimization data to binary file.
	Final energy is   -158.1607590470939
	Final (previous) structure:
	Cartesian Geometry (in Angstrom)
	    H    -2.3514197312   0.0501627855   0.2942214981
	    H    -2.1997294805   1.6962551033  -0.3100788972
	    H    -1.8974196647   0.3322918757  -1.3805448518
	    C    -1.7727689358   0.6973943449  -0.3626276283
	    H     0.2535385885   1.3594127064  -0.6214085282
	    H    -0.1987341206   1.0860175675   1.0452365305
	    C    -0.3087468729   0.6918954830   0.0338926651
	    H    -0.2450914946  -1.3471679978   0.6571742062
	    H     0.1731635394  -1.1069504554  -1.0228720662
	    C     0.3051004125  -0.6936846010  -0.0217904926
	    H     1.9310605437  -0.1719023782   1.2915555237
	    H     2.3718440033  -0.1920409667  -0.4097346120
	    H     2.1595197126  -1.7060771972   0.4718717183
	    C     1.7766898693  -0.6956053144   0.3492303569
	Saving final (previous) structure.
			--------------------------
			 OPTKING Finished Execution 
			--------------------------

    Final optimized geometry and variables:
    Molecular point group: c1
    Full point group: C1

    Geometry (in Angstrom), charge = 0, multiplicity = 1:

    H           -2.351419731162     0.050162785459     0.294221498061
    H           -2.199729480485     1.696255103299    -0.310078897161
    H           -1.897419664687     0.332291875727    -1.380544851781
    C           -1.772768935826     0.697394344870    -0.362627628313
    H            0.253538588522     1.359412706426    -0.621408528185
    H           -0.198734120641     1.086017567476     1.045236530543
    C           -0.308746872894     0.691895482958     0.033892665120
    H           -0.245091494567    -1.347167997771     0.657174206173
    H            0.173163539378    -1.106950455384    -1.022872066224
    C            0.305100412536    -0.693684601032    -0.021790492635
    H            1.931060543693    -0.171902378215     1.291555523665
    H            2.371844003348    -0.192040966700    -0.409734612028
    H            2.159519712559    -1.706077197212     0.471871718331
    C            1.776689869273    -0.695605314401     0.349230356872

	Cleaning optimization helper files.

*** Psi4 exiting successfully. Buy a developer a beer!
