
    -----------------------------------------------------------------------
          Psi4: An Open-Source Ab Initio Electronic Structure Package
                               Psi4 1.1 release

                         Git: Rev {HEAD} add49b9 


    R. M. Parrish, L. A. Burns, D. G. A. Smith, A. C. Simmonett,
    A. E. DePrince III, E. G. Hohenstein, U. Bozkaya, A. Yu. Sokolov,
    R. Di Remigio, R. M. Richard, J. F. Gonthier, A. M. James,
    H. R. McAlexander, A. Kumar, M. Saitow, X. Wang, B. P. Pritchard,
    P. Verma, H. F. Schaefer III, K. Patkowski, R. A. King, E. F. Valeev,
    F. A. Evangelista, J. M. Turney, T. D. Crawford, and C. D. Sherrill,
    J. Chem. Theory Comput. in press (2017).
    (doi: 10.1021/acs.jctc.7b00174)

    -----------------------------------------------------------------------


    Psi4 started on: Wednesday, 14 June 2017 02:24PM

    Process ID:   3926
    PSIDATADIR: /cbio/jclab/home/chayas/anaconda/envs/py35/share/psi4
    Memory:     500.0 MiB
    Threads:    1
    
  ==> Input File <==

--------------------------------------------------------------------------

memory 1000 mb

molecule butane {
  symmetry C1
  0 1 
  H      4.518   1.841   -6.627
  H      3.143   2.850   -7.012
  H      2.900   1.189   -6.529
  C      3.541   1.857   -7.064
  H      2.654   1.432   -8.973
  H      4.271   2.085   -9.072
  C      3.631   1.416   -8.537
  H      3.665   -0.647   -7.940
  H      4.104   -0.384   -9.610
  C      4.203   -0.012   -8.612
  H      6.088   -0.983   -8.270
  H      5.791   0.381   -7.220
  H      6.230   0.644   -8.890
  C      5.691   0.009   -8.218
  units Angstrom
}

dih_string = "14 10 7 4 290"
set optking fixed_dihedral = $dih_string

optimize('MP2/aug-cc-pvtz')
--------------------------------------------------------------------------

  Memory set to 953.674 MiB by Python driver.
gradient() will perform analytic gradient computation.

*** tstart() called on gpu-1-16.local
*** at Wed Jun 14 14:24:37 2017

    SCF Algorithm Type (re)set to DF.

*** tstart() called on gpu-1-16.local
*** at Wed Jun 14 14:24:38 2017

   => Loading Basis Set <=

    Name: AUG-CC-PVTZ
    Role: ORBITAL
    Keyword: BASIS
    atoms 1-3, 5-6, 8-9, 11-13 entry H          line    34 file /cbio/jclab/home/chayas/anaconda/envs/py35/share/psi4/basis/aug-cc-pvtz.gbs 
    atoms 4, 7, 10, 14         entry C          line   221 file /cbio/jclab/home/chayas/anaconda/envs/py35/share/psi4/basis/aug-cc-pvtz.gbs 


         ---------------------------------------------------------
                                   SCF
            by Justin Turney, Rob Parrish, and Andy Simmonett
                              RHF Reference
                        1 Threads,    953 MiB Core
         ---------------------------------------------------------

  ==> Geometry <==

    Molecular point group: c1
    Full point group: C1

    Geometry (in Angstrom), charge = 0, multiplicity = 1:

       Center              X                  Y                   Z               Mass       
    ------------   -----------------  -----------------  -----------------  -----------------
           H          0.239370335392     1.019456778464     1.464533731651     1.007825032070
           H         -1.135629664608     2.028456778464     1.079533731651     1.007825032070
           H         -1.378629664608     0.367456778464     1.562533731651     1.007825032070
           C         -0.737629664608     1.035456778464     1.027533731651    12.000000000000
           H         -1.624629664608     0.610456778464    -0.881466268349     1.007825032070
           H         -0.007629664608     1.263456778464    -0.980466268349     1.007825032070
           C         -0.647629664608     0.594456778464    -0.445466268349    12.000000000000
           H         -0.613629664608    -1.468543221536     0.151533731651     1.007825032070
           H         -0.174629664608    -1.205543221536    -1.518466268349     1.007825032070
           C         -0.075629664608    -0.833543221536    -0.520466268349    12.000000000000
           H          1.809370335392    -1.804543221536    -0.178466268349     1.007825032070
           H          1.512370335392    -0.440543221536     0.871533731651     1.007825032070
           H          1.951370335392    -0.177543221536    -0.798466268349     1.007825032070
           C          1.412370335392    -0.812543221536    -0.126466268349    12.000000000000

  Running in c1 symmetry.

  Rotational constants: A =      0.43646  B =      0.16666  C =      0.14256 [cm^-1]
  Rotational constants: A =  13084.72947  B =   4996.26667  C =   4273.81890 [MHz]
  Nuclear repulsion =  134.288559701245248

  Charge       = 0
  Multiplicity = 1
  Electrons    = 34
  Nalpha       = 17
  Nbeta        = 17

  ==> Algorithm <==

  SCF Algorithm Type is DF.
  DIIS enabled.
  MOM disabled.
  Fractional occupation disabled.
  Guess Type is SAD.
  Energy threshold   = 1.00e-10
  Density threshold  = 1.00e-10
  Integral threshold = 0.00e+00

  ==> Primary Basis <==

  Basis Set: AUG-CC-PVTZ
    Blend: AUG-CC-PVTZ
    Number of shells: 146
    Number of basis function: 414
    Number of Cartesian functions: 470
    Spherical Harmonics?: true
    Max angular momentum: 3

   => Loading Basis Set <=

    Name: (AUG-CC-PVTZ AUX)
    Role: JKFIT
    Keyword: DF_BASIS_SCF
    atoms 1-3, 5-6, 8-9, 11-13 entry H          line    69 file /cbio/jclab/home/chayas/anaconda/envs/py35/share/psi4/basis/aug-cc-pvtz-jkfit.gbs 
    atoms 4, 7, 10, 14         entry C          line   161 file /cbio/jclab/home/chayas/anaconda/envs/py35/share/psi4/basis/aug-cc-pvtz-jkfit.gbs 

  ==> Pre-Iterations <==

   -------------------------------------------------------
    Irrep   Nso     Nmo     Nalpha   Nbeta   Ndocc  Nsocc
   -------------------------------------------------------
     A        414     414       0       0       0       0
   -------------------------------------------------------
    Total     414     414      17      17      17       0
   -------------------------------------------------------

  ==> Integral Setup <==

  ==> DFJK: Density-Fitted J/K Matrices <==

    J tasked:                  Yes
    K tasked:                  Yes
    wK tasked:                  No
    OpenMP threads:              1
    Integrals threads:           1
    Memory (MB):               715
    Algorithm:                Core
    Integral Cache:           NONE
    Schwarz Cutoff:          1E-12
    Fitting Condition:       1E-12

   => Auxiliary Basis Set <=

  Basis Set: (AUG-CC-PVTZ AUX)
    Blend: AUG-CC-PVTZ-JKFIT
    Number of shells: 260
    Number of basis function: 876
    Number of Cartesian functions: 1074
    Spherical Harmonics?: true
    Max angular momentum: 4

  Minimum eigenvalue in the overlap matrix is 6.9614903933E-06.
  Using Symmetric Orthogonalization.

  SCF Guess: Superposition of Atomic Densities via on-the-fly atomic UHF.

  ==> Iterations <==

                           Total Energy        Delta E     RMS |[F,P]|

   @DF-RHF iter   0:  -159.09818953883948   -1.59098e+02   9.64869e-03 
   @DF-RHF iter   1:  -157.24659494820881    1.85159e+00   8.72762e-04 
   @DF-RHF iter   2:  -157.33788783106269   -9.12929e-02   2.89274e-04 DIIS
   @DF-RHF iter   3:  -157.34791358888256   -1.00258e-02   1.14186e-04 DIIS
   @DF-RHF iter   4:  -157.34967252156480   -1.75893e-03   1.81130e-05 DIIS
   @DF-RHF iter   5:  -157.34973952408174   -6.70025e-05   3.96581e-06 DIIS
   @DF-RHF iter   6:  -157.34974281998257   -3.29590e-06   1.11992e-06 DIIS
   @DF-RHF iter   7:  -157.34974299074185   -1.70759e-07   2.68963e-07 DIIS
   @DF-RHF iter   8:  -157.34974300419833   -1.34565e-08   5.62048e-08 DIIS
   @DF-RHF iter   9:  -157.34974300490592   -7.07587e-10   1.66395e-08 DIIS
   @DF-RHF iter  10:  -157.34974300495662   -5.07043e-11   5.35892e-09 DIIS
   @DF-RHF iter  11:  -157.34974300496307   -6.45173e-12   1.15844e-09 DIIS
   @DF-RHF iter  12:  -157.34974300496310   -2.84217e-14   2.69036e-10 DIIS
   @DF-RHF iter  13:  -157.34974300496282    2.84217e-13   7.42245e-11 DIIS

  ==> Post-Iterations <==

    Orbital Energies (a.u.)
    -----------------------

    Doubly Occupied:                                                      

       1A    -11.206776     2A    -11.206187     3A    -11.198994  
       4A    -11.198808     5A     -1.073252     6A     -0.975226  
       7A     -0.874777     8A     -0.784643     9A     -0.629450  
      10A     -0.628117    11A     -0.579380    12A     -0.534853  
      13A     -0.532223    14A     -0.505932    15A     -0.473612  
      16A     -0.456419    17A     -0.450185  

    Virtual:                                                              

      18A      0.032103    19A      0.037886    20A      0.039308  
      21A      0.040894    22A      0.057774    23A      0.059216  
      24A      0.060453    25A      0.061296    26A      0.071445  
      27A      0.086775    28A      0.110532    29A      0.121539  
      30A      0.123289    31A      0.125210    32A      0.129090  
      33A      0.131282    34A      0.137569    35A      0.143968  
      36A      0.150453    37A      0.152878    38A      0.163215  
      39A      0.166848    40A      0.171423    41A      0.189862  
      42A      0.214621    43A      0.215805    44A      0.229115  
      45A      0.245402    46A      0.265435    47A      0.266267  
      48A      0.285333    49A      0.287324    50A      0.299086  
      51A      0.301440    52A      0.303342    53A      0.310124  
      54A      0.322046    55A      0.325777    56A      0.334606  
      57A      0.345229    58A      0.355745    59A      0.360129  
      60A      0.360320    61A      0.364703    62A      0.369224  
      63A      0.378107    64A      0.384400    65A      0.388838  
      66A      0.394058    67A      0.408252    68A      0.411928  
      69A      0.425432    70A      0.428712    71A      0.432929  
      72A      0.439414    73A      0.443473    74A      0.446441  
      75A      0.455530    76A      0.466826    77A      0.471577  
      78A      0.472898    79A      0.480007    80A      0.483321  
      81A      0.493423    82A      0.502243    83A      0.504846  
      84A      0.511327    85A      0.514682    86A      0.519886  
      87A      0.527232    88A      0.532506    89A      0.548616  
      90A      0.552804    91A      0.562193    92A      0.573333  
      93A      0.574399    94A      0.586872    95A      0.592432  
      96A      0.606876    97A      0.613768    98A      0.624349  
      99A      0.626049   100A      0.635309   101A      0.643547  
     102A      0.661372   103A      0.672935   104A      0.683670  
     105A      0.696023   106A      0.721144   107A      0.742587  
     108A      0.794377   109A      0.798318   110A      0.802776  
     111A      0.821291   112A      0.821657   113A      0.836848  
     114A      0.839723   115A      0.841456   116A      0.857849  
     117A      0.873929   118A      0.876959   119A      0.879026  
     120A      0.890793   121A      0.894307   122A      0.896408  
     123A      0.908608   124A      0.913217   125A      0.929285  
     126A      0.929952   127A      0.938076   128A      0.956515  
     129A      0.964083   130A      0.974415   131A      0.978478  
     132A      0.993963   133A      1.000291   134A      1.011792  
     135A      1.014618   136A      1.023444   137A      1.037423  
     138A      1.046488   139A      1.056900   140A      1.061863  
     141A      1.079234   142A      1.088135   143A      1.097180  
     144A      1.111312   145A      1.114587   146A      1.126389  
     147A      1.133852   148A      1.147624   149A      1.162206  
     150A      1.162982   151A      1.166439   152A      1.195772  
     153A      1.196608   154A      1.204669   155A      1.220299  
     156A      1.224405   157A      1.234807   158A      1.240904  
     159A      1.251321   160A      1.265368   161A      1.273212  
     162A      1.278708   163A      1.285133   164A      1.304249  
     165A      1.308671   166A      1.324737   167A      1.328422  
     168A      1.367666   169A      1.371117   170A      1.374422  
     171A      1.391641   172A      1.401563   173A      1.427515  
     174A      1.432691   175A      1.447489   176A      1.478072  
     177A      1.480969   178A      1.486096   179A      1.498284  
     180A      1.505171   181A      1.535827   182A      1.541407  
     183A      1.556142   184A      1.563112   185A      1.573104  
     186A      1.595562   187A      1.613559   188A      1.627017  
     189A      1.628500   190A      1.648995   191A      1.667714  
     192A      1.683094   193A      1.684871   194A      1.687583  
     195A      1.691959   196A      1.715868   197A      1.717375  
     198A      1.719272   199A      1.740444   200A      1.744296  
     201A      1.755879   202A      1.770429   203A      1.780902  
     204A      1.787067   205A      1.799742   206A      1.803581  
     207A      1.809677   208A      1.824101   209A      1.851572  
     210A      1.867269   211A      1.879236   212A      1.882639  
     213A      1.923546   214A      1.937332   215A      1.952986  
     216A      1.962823   217A      1.980179   218A      1.982250  
     219A      1.994712   220A      2.002548   221A      2.032979  
     222A      2.034668   223A      2.053069   224A      2.057410  
     225A      2.066249   226A      2.083674   227A      2.111051  
     228A      2.145213   229A      2.154928   230A      2.164956  
     231A      2.181259   232A      2.185229   233A      2.203231  
     234A      2.231288   235A      2.235085   236A      2.263440  
     237A      2.268268   238A      2.295455   239A      2.306723  
     240A      2.318967   241A      2.329912   242A      2.341248  
     243A      2.365471   244A      2.382610   245A      2.403764  
     246A      2.409608   247A      2.430878   248A      2.469410  
     249A      2.518599   250A      2.524049   251A      2.564359  
     252A      2.566413   253A      2.584849   254A      2.588774  
     255A      2.607480   256A      2.616328   257A      2.678480  
     258A      2.816258   259A      2.922101   260A      3.044028  
     261A      3.233511   262A      3.250248   263A      3.279743  
     264A      3.370080   265A      3.396055   266A      3.412461  
     267A      3.450505   268A      3.479071   269A      3.518655  
     270A      3.525383   271A      3.531660   272A      3.561058  
     273A      3.578700   274A      3.602735   275A      3.612591  
     276A      3.631302   277A      3.646577   278A      3.666219  
     279A      3.683477   280A      3.701271   281A      3.713728  
     282A      3.717518   283A      3.738468   284A      3.767410  
     285A      3.782773   286A      3.789238   287A      3.812994  
     288A      3.818835   289A      3.842561   290A      3.843373  
     291A      3.849199   292A      3.882784   293A      3.898944  
     294A      3.907158   295A      3.930481   296A      3.960944  
     297A      3.964292   298A      3.979740   299A      3.983044  
     300A      4.000804   301A      4.003925   302A      4.041166  
     303A      4.043683   304A      4.062804   305A      4.064827  
     306A      4.073487   307A      4.087988   308A      4.105757  
     309A      4.128501   310A      4.147051   311A      4.182318  
     312A      4.194184   313A      4.217514   314A      4.232391  
     315A      4.247182   316A      4.268615   317A      4.282836  
     318A      4.308272   319A      4.310170   320A      4.321779  
     321A      4.343618   322A      4.370852   323A      4.384367  
     324A      4.425443   325A      4.439321   326A      4.464137  
     327A      4.485375   328A      4.563907   329A      4.600987  
     330A      4.601479   331A      4.629188   332A      4.687813  
     333A      4.693932   334A      4.713791   335A      4.722774  
     336A      4.758420   337A      4.760742   338A      4.784789  
     339A      4.813652   340A      4.828167   341A      4.850169  
     342A      4.883067   343A      4.894972   344A      4.899889  
     345A      4.902240   346A      4.907948   347A      4.936063  
     348A      4.968681   349A      4.991441   350A      4.995799  
     351A      5.021615   352A      5.054833   353A      5.081343  
     354A      5.110367   355A      5.138220   356A      5.154017  
     357A      5.179002   358A      5.199778   359A      5.216823  
     360A      5.244693   361A      5.273973   362A      5.276314  
     363A      5.308576   364A      5.312580   365A      5.352110  
     366A      5.389028   367A      5.397356   368A      5.415059  
     369A      5.430534   370A      5.463091   371A      5.477405  
     372A      5.494005   373A      5.532644   374A      5.535449  
     375A      5.572885   376A      5.607718   377A      5.608039  
     378A      5.651895   379A      5.671254   380A      5.706397  
     381A      5.733709   382A      5.758357   383A      5.781634  
     384A      5.797776   385A      5.847809   386A      5.860323  
     387A      5.876665   388A      5.953167   389A      5.959495  
     390A      6.038125   391A      6.129458   392A      6.132089  
     393A      6.171686   394A      6.194389   395A      6.250836  
     396A      6.299806   397A      6.315182   398A      6.326291  
     399A      6.353620   400A      6.371505   401A      6.397993  
     402A      6.421599   403A      6.605401   404A      6.615087  
     405A      6.776052   406A      6.781165   407A      6.829339  
     408A      6.893701   409A      6.932706   410A      6.971207  
     411A     18.045230   412A     18.102210   413A     18.722425  
     414A     18.744450  

    Final Occupation by Irrep:
              A 
    DOCC [    17 ]

  Energy converged.

  @DF-RHF Final Energy:  -157.34974300496282

   => Energetics <=

    Nuclear Repulsion Energy =            134.2885597012452479
    One-Electron Energy =                -476.6589369195469317
    Two-Electron Energy =                 185.0206342133388375
    DFT Exchange-Correlation Energy =       0.0000000000000000
    Empirical Dispersion Energy =           0.0000000000000000
    PCM Polarization Energy =               0.0000000000000000
    EFP Energy =                            0.0000000000000000
    Total Energy =                       -157.3497430049628178



Properties will be evaluated at   0.000000,   0.000000,   0.000000 Bohr

Properties computed using the SCF density matrix

  Nuclear Dipole Moment: (a.u.)
     X:     0.5416      Y:     0.1805      Z:     0.7240

  Electronic Dipole Moment: (a.u.)
     X:    -0.5664      Y:    -0.1893      Z:    -0.7572

  Dipole Moment: (a.u.)
     X:    -0.0249      Y:    -0.0088      Z:    -0.0331     Total:     0.0424

  Dipole Moment: (Debye)
     X:    -0.0632      Y:    -0.0224      Z:    -0.0842     Total:     0.1077


*** tstop() called on gpu-1-16.local at Wed Jun 14 14:25:43 2017
Module time:
	user time   =      65.17 seconds =       1.09 minutes
	system time =       0.62 seconds =       0.01 minutes
	total time  =         65 seconds =       1.08 minutes
Total time:
	user time   =      65.18 seconds =       1.09 minutes
	system time =       0.62 seconds =       0.01 minutes
	total time  =         66 seconds =       1.10 minutes

  //>>>>>>>>>>>>>>>>>>>>>>>>>>>>>>>>>>>//
  //               DFMP2               //
  //<<<<<<<<<<<<<<<<<<<<<<<<<<<<<<<<<<<//

   => Loading Basis Set <=

    Name: (AUG-CC-PVTZ AUX)
    Role: RIFIT
    Keyword: DF_BASIS_MP2
    atoms 1-3, 5-6, 8-9, 11-13 entry H          line    29 file /cbio/jclab/home/chayas/anaconda/envs/py35/share/psi4/basis/aug-cc-pvtz-ri.gbs 
    atoms 4, 7, 10, 14         entry C          line   147 file /cbio/jclab/home/chayas/anaconda/envs/py35/share/psi4/basis/aug-cc-pvtz-ri.gbs 

	 --------------------------------------------------------
	                          DF-MP2                         
	      2nd-Order Density-Fitted Moller-Plesset Theory     
	              RMP2 Wavefunction,   1 Threads             
	                                                         
	        Rob Parrish, Justin Turney, Andy Simmonett,      
	           Ed Hohenstein, and C. David Sherrill          
	 --------------------------------------------------------

   => Auxiliary Basis Set <=

  Basis Set: (AUG-CC-PVTZ AUX)
    Blend: AUG-CC-PVTZ-RI
    Number of shells: 252
    Number of basis function: 884
    Number of Cartesian functions: 1094
    Spherical Harmonics?: true
    Max angular momentum: 4

	 --------------------------------------------------------
	                 NBF =   414, NAUX =   884
	 --------------------------------------------------------
	   CLASS    FOCC     OCC    AOCC    AVIR     VIR    FVIR
	   PAIRS       0      17      17     397     397       0
	 --------------------------------------------------------


         ------------------------------------------------------------
                                     CPHF                           
                                  Rob Parrish                       
         ------------------------------------------------------------

  ==> Geometry <==

    Molecular point group: c1
    Full point group: C1

    Geometry (in Angstrom), charge = 0, multiplicity = 1:

       Center              X                  Y                   Z               Mass       
    ------------   -----------------  -----------------  -----------------  -----------------
           H          0.239370335392     1.019456778464     1.464533731651     1.007825032070
           H         -1.135629664608     2.028456778464     1.079533731651     1.007825032070
           H         -1.378629664608     0.367456778464     1.562533731651     1.007825032070
           C         -0.737629664608     1.035456778464     1.027533731651    12.000000000000
           H         -1.624629664608     0.610456778464    -0.881466268349     1.007825032070
           H         -0.007629664608     1.263456778464    -0.980466268349     1.007825032070
           C         -0.647629664608     0.594456778464    -0.445466268349    12.000000000000
           H         -0.613629664608    -1.468543221536     0.151533731651     1.007825032070
           H         -0.174629664608    -1.205543221536    -1.518466268349     1.007825032070
           C         -0.075629664608    -0.833543221536    -0.520466268349    12.000000000000
           H          1.809370335392    -1.804543221536    -0.178466268349     1.007825032070
           H          1.512370335392    -0.440543221536     0.871533731651     1.007825032070
           H          1.951370335392    -0.177543221536    -0.798466268349     1.007825032070
           C          1.412370335392    -0.812543221536    -0.126466268349    12.000000000000

  Nuclear repulsion =  134.288559701245248
  Reference energy  = -157.349743004962818

  ==> Basis Set <==

  Basis Set: AUG-CC-PVTZ
    Blend: AUG-CC-PVTZ
    Number of shells: 146
    Number of basis function: 414
    Number of Cartesian functions: 470
    Spherical Harmonics?: true
    Max angular momentum: 3

  ==> CGRSolver (by Rob Parrish) <==

   Number of roots    =         1
   Preconditioning    =    JACOBI
   Convergence cutoff =     1E-06
   Maximum iterations =       100

  ==> CPHFRHamiltonian (by Rob Parrish) <== 

  ==> DFJK: Density-Fitted J/K Matrices <==

    J tasked:                  Yes
    K tasked:                  Yes
    wK tasked:                  No
    OpenMP threads:              1
    Integrals threads:           1
    Memory (MB):               715
    Algorithm:                Core
    Integral Cache:           NONE
    Schwarz Cutoff:          1E-12
    Fitting Condition:       1E-12

   => Auxiliary Basis Set <=

  Basis Set: (AUG-CC-PVTZ AUX)
    Blend: AUG-CC-PVTZ-JKFIT
    Number of shells: 260
    Number of basis function: 876
    Number of Cartesian functions: 1074
    Spherical Harmonics?: true
    Max angular momentum: 4

  ==> CPHF Iterations <==

  => Iterations <=

             Iter  Converged  Remaining    Residual
  CGR           1          0          1   8.497E-02
  CGR           2          0          1   1.345E-02
  CGR           3          0          1   3.220E-03
  CGR           4          0          1   8.029E-04
  CGR           5          0          1   1.754E-04
  CGR           6          0          1   3.213E-05
  CGR           7          0          1   5.719E-06
  CGR           8          0          1   1.142E-06
  CGR           9          1          0   1.513E-07

    CGRSolver converged.

  ==> DFCorrGrad: Density-Fitted Correlated Gradients <==

    OpenMP threads:              1
    Integrals threads:           1
    Memory (MB):               715
    Schwarz Cutoff:          0E+00
    Fitting Condition:       1E-12

   => Auxiliary Basis Set <=

  Basis Set: (AUG-CC-PVTZ AUX)
    Blend: AUG-CC-PVTZ-JKFIT
    Number of shells: 260
    Number of basis function: 876
    Number of Cartesian functions: 1074
    Spherical Harmonics?: true
    Max angular momentum: 4

	-----------------------------------------------------------
	 ==================> DF-MP2 Energies <==================== 
	-----------------------------------------------------------
	 Reference Energy          =    -157.3497430049628178 [Eh]
	 Singles Energy            =      -0.0000000000000001 [Eh]
	 Same-Spin Energy          =      -0.1661784479983323 [Eh]
	 Opposite-Spin Energy      =      -0.6395579396796506 [Eh]
	 Correlation Energy        =      -0.8057363876779829 [Eh]
	 Total Energy              =    -158.1554793926408138 [Eh]
	-----------------------------------------------------------
	 ================> DF-SCS-MP2 Energies <================== 
	-----------------------------------------------------------
	 SCS Same-Spin Scale       =       0.3333333333333333 [-]
	 SCS Opposite-Spin Scale   =       1.2000000000000000 [-]
	 SCS Same-Spin Energy      =      -0.0553928159994441 [Eh]
	 SCS Opposite-Spin Energy  =      -0.7674695276155806 [Eh]
	 SCS Correlation Energy    =      -0.8228623436150249 [Eh]
	 SCS Total Energy          =    -158.1726053485778323 [Eh]
	-----------------------------------------------------------


  -Total Gradient:
     Atom            X                  Y                   Z
    ------   -----------------  -----------------  -----------------
       1       -0.007428672193    -0.002178628958    -0.007289671857
       2        0.003573704333    -0.010348839048    -0.004413668353
       3        0.007243703485     0.006876145380    -0.007669359476
       4       -0.001159825600     0.001150806192     0.026463480812
       5        0.011068172304    -0.002472977377     0.006442468308
       6       -0.006512895387    -0.008383009939     0.008668409501
       7       -0.003035803649     0.021336117660    -0.026441361850
       8        0.008024013498     0.008744143842    -0.006356198895
       9        0.001952277342     0.006839753342     0.011173926403
      10       -0.018122819104    -0.028398940084    -0.002990353804
      11       -0.007946792421     0.009877226476    -0.000788551363
      12       -0.004870809166    -0.002062926221    -0.009673450098
      13       -0.007478870193    -0.006578053504     0.006639692328
      14        0.024694616749     0.005599182239     0.006234638342


*** tstop() called on gpu-1-16.local at Wed Jun 14 14:31:07 2017
Module time:
	user time   =     383.59 seconds =       6.39 minutes
	system time =       3.68 seconds =       0.06 minutes
	total time  =        389 seconds =       6.48 minutes
Total time:
	user time   =     383.60 seconds =       6.39 minutes
	system time =       3.68 seconds =       0.06 minutes
	total time  =        390 seconds =       6.50 minutes

			-----------------------------------------
			 OPTKING 2.0: for geometry optimizations 
			  - R.A. King,  Bethel University        
			-----------------------------------------

	Internal coordinates to be generated automatically.
	Detected frag 1 with atoms:  1 2 3 4 5 6 7 8 9 10 11 12 13 14
	---Fragment 1 Bond Connectivity---
	 1 : 4
	 2 : 4
	 3 : 4
	 4 : 1 2 3 7
	 5 : 7
	 6 : 7
	 7 : 4 5 6 10
	 8 : 10
	 9 : 10
	 10 : 7 8 9 14
	 11 : 14
	 12 : 14
	 13 : 14
	 14 : 10 11 12 13

	Assuming in current code that numbering for constraints corresponds to unified fragment.
	Fixed dihedral atom list: 
	    14    10     7     4
	---Fragment 1 Geometry and Gradient---
	 H           0.4523443782        1.9264941156        2.7675676652
	 H          -2.1460290545        3.8332277837        2.0400231040
	 H          -2.6052325048        0.6943926770        2.9527608262
	 C          -1.3939180536        1.9567297337        1.9417573451
	 H          -3.0701051335        1.1535961273       -1.6657298426
	 H          -0.0144179766        2.3875872920       -1.8528127297
	 C          -1.2238427016        1.1233605091       -0.8418092486
	 H          -1.1595920131       -2.7751445030        0.2863572527
	 H          -0.3300022408       -2.2781465301       -2.8694853892
	 C          -0.1429193536       -1.5751684086       -0.9835387086
	 H           3.4192144069       -3.4100924837       -0.3372523711
	 H           2.8579657454       -0.8325060384        1.6469600684
	 H           3.6875555177       -0.3355080655       -1.5088825735
	 C           2.6689931321       -1.5354841598       -0.2389866122
	            -0.0074286722       -0.0021786290       -0.0072896719
	             0.0035737043       -0.0103488390       -0.0044136684
	             0.0072437035        0.0068761454       -0.0076693595
	            -0.0011598256        0.0011508062        0.0264634808
	             0.0110681723       -0.0024729774        0.0064424683
	            -0.0065128954       -0.0083830099        0.0086684095
	            -0.0030358036        0.0213361177       -0.0264413618
	             0.0080240135        0.0087441438       -0.0063561989
	             0.0019522773        0.0068397533        0.0111739264
	            -0.0181228191       -0.0283989401       -0.0029903538
	            -0.0079467924        0.0098772265       -0.0007885514
	            -0.0048708092       -0.0020629262       -0.0096734501
	            -0.0074788702       -0.0065780535        0.0066396923
	             0.0246946167        0.0055991822        0.0062346383

	Previous optimization step data not found.  Starting new optimization.

	---Fragment 1 Intrafragment Coordinates---
	 - Coordinate -           - BOHR/RAD -       - ANG/DEG -
	 R(1,4)           =         2.022761	       1.070399
	 R(2,4)           =         2.023999	       1.071054
	 R(3,4)           =         2.020620	       1.069266
	 R(4,7)           =         2.910614	       1.540231
	 R(5,7)           =         2.021990	       1.069991
	 R(6,7)           =         2.020670	       1.069292
	 R(7,10)          =         2.910419	       1.540128
	 R(8,10)          =         2.021436	       1.069698
	 R(9,10)          =         2.021379	       1.069668
	 R(10,14)         =         2.909087	       1.539422
	 R(11,14)         =         2.021545	       1.069756
	 R(12,14)         =         2.021555	       1.069761
	 R(13,14)         =         2.022387	       1.070201
	 B(1,4,2)         =         1.910502	     109.463706
	 B(1,4,3)         =         1.910874	     109.485038
	 B(1,4,7)         =         1.910094	     109.440307
	 B(2,4,3)         =         1.909373	     109.399000
	 B(2,4,7)         =         1.910915	     109.487390
	 B(3,4,7)         =         1.912041	     109.551864
	 B(4,7,5)         =         1.909281	     109.393716
	 B(4,7,6)         =         1.911690	     109.531764
	 B(4,7,10)        =         1.911074	     109.496478
	 B(5,7,6)         =         1.910576	     109.467941
	 B(5,7,10)        =         1.910430	     109.459582
	 B(6,7,10)        =         1.910748	     109.477795
	 B(7,10,8)        =         1.910303	     109.452301
	 B(7,10,9)        =         1.910824	     109.482155
	 B(7,10,14)       =         1.911213	     109.504437
	 B(8,10,9)        =         1.910417	     109.458846
	 B(8,10,14)       =         1.910766	     109.478806
	 B(9,10,14)       =         1.910276	     109.450772
	 B(10,14,11)      =         1.910943	     109.488965
	 B(10,14,12)      =         1.911204	     109.503926
	 B(10,14,13)      =         1.911557	     109.524173
	 B(11,14,12)      =         1.910410	     109.458432
	 B(11,14,13)      =         1.910054	     109.438058
	 B(12,14,13)      =         1.909629	     109.413709
	 D(1,4,7,5)       =         3.141319	     179.984320
	 D(1,4,7,6)       =        -1.047723	     -60.030134
	 D(1,4,7,10)      =         1.047731	      60.030556
	 D(2,4,7,5)       =        -1.047789	     -60.033914
	 D(2,4,7,6)       =         1.046353	      59.951633
	 D(2,4,7,10)      =        -3.141378	    -179.987678
	 D(3,4,7,5)       =         1.046097	      59.936938
	 D(3,4,7,6)       =         3.140240	     179.922484
	 D(3,4,7,10)      =        -1.047491	     -60.016826
	 D(4,7,10,8)      =         0.872641	      49.998642
	 D(4,7,10,9)      =         2.966686	     169.978597
	 D(4,7,10,14)     =        -1.222069	     -70.019399
	 D(5,7,10,8)      =        -1.220243	     -69.914779
	 D(5,7,10,9)      =         0.873802	      50.065176
	 D(5,7,10,14)     =         2.968232	     170.067179
	 D(6,7,10,8)      =         2.968671	     170.092340
	 D(6,7,10,9)      =        -1.220469	     -69.927706
	 D(6,7,10,14)     =         0.873961	      50.074298
	 D(7,10,14,11)    =         3.141408	     179.989448
	 D(7,10,14,12)    =         1.046747	      59.974196
	 D(7,10,14,13)    =        -1.047335	     -60.007849
	 D(8,10,14,11)    =         1.046982	      59.987626
	 D(8,10,14,12)    =        -1.047680	     -60.027626
	 D(8,10,14,13)    =         3.141424	     179.990329
	 D(9,10,14,11)    =        -1.047012	     -59.989345
	 D(9,10,14,12)    =         3.141512	     179.995403
	 D(9,10,14,13)    =         1.047431	      60.013359

	Current energy   :      -158.1554793926

	Generating empirical Hessian (Schlegel '84) for each fragment.
	Adding user-defined constraint: Fragment 1; Coordinate 49:
		Value =    -1.222069; Fixed value    =    -1.221730
		Force =     0.000169; Force constant =     0.500000
	Removing off-diagonal coupling between coordinate 49 and others.
	Taking RFO optimization step.
	Going to follow RFO solution 1.
	Using RFO vector 1.

	Determining step-restricting scale parameter for RS-RFO.
	Maximum step size allowed    0.10000

	 Iter      |step|        alpha        rfo_root  
	------------------------------------------------
	    0     0.21371       1.00000           1
	    1     0.16826       4.88417           1
	    2     0.13050      15.61744           1
	    3     0.10916      30.03521           1
	    4     0.10120      38.63751           1
	    5     0.10002      40.12185           1
	    6     0.10000      40.15407           1
	------------------------------------------------
	Norm of target step-size    0.10000
	Projected energy change by RFO approximation:        -0.0045384153

	Back-transformation to cartesian coordinates...
	Could not converge backtransformation.
	Using first guess instead.

	--- Internal Coordinate Step in ANG or DEG, aJ/ANG or AJ/DEG ---
	 ---------------------------------------------------------------------------
	   Coordinate                Previous        Force       Change         New 
	   ----------                --------       ------       ------       ------
	    1 R(1,4)          =      1.070399     0.080113     0.009982     1.080381
	    2 R(2,4)          =      1.071054     0.091754     0.010860     1.081914
	    3 R(3,4)          =      1.069266     0.102782     0.011985     1.081251
	    4 R(4,7)          =      1.540231    -0.044180    -0.005668     1.534563
	    5 R(5,7)          =      1.069991     0.105195     0.012316     1.082307
	    6 R(6,7)          =      1.069292     0.111058     0.012940     1.082232
	    7 R(7,10)         =      1.540128    -0.032507    -0.004283     1.535845
	    8 R(8,10)         =      1.069698     0.108911     0.012702     1.082400
	    9 R(9,10)         =      1.069668     0.106977     0.012514     1.082182
	   10 R(10,14)        =      1.539422    -0.040880    -0.005200     1.534223
	   11 R(11,14)        =      1.069756     0.099442     0.011722     1.081477
	   12 R(12,14)        =      1.069761     0.084012     0.010412     1.080173
	   13 R(13,14)        =      1.070201     0.097538     0.011401     1.081602
	   14 B(1,4,2)        =    109.463706    -0.000342    -0.747823   108.715883
	   15 B(1,4,3)        =    109.485038    -0.000202    -0.458780   109.026258
	   16 B(1,4,7)        =    109.440307     0.000368     0.815665   110.255972
	   17 B(2,4,3)        =    109.399000    -0.000209    -0.464186   108.934814
	   18 B(2,4,7)        =    109.487390     0.000326     0.729371   110.216762
	   19 B(3,4,7)        =    109.551864     0.000058     0.108069   109.659933
	   20 B(4,7,5)        =    109.393716    -0.000299    -0.529305   108.864411
	   21 B(4,7,6)        =    109.531764    -0.000196    -0.332680   109.199084
	   22 B(4,7,10)       =    109.496478     0.000944     1.870582   111.367061
	   23 B(5,7,6)        =    109.467941     0.000049    -0.171376   109.296564
	   24 B(5,7,10)       =    109.459582    -0.000209    -0.317754   109.141828
	   25 B(6,7,10)       =    109.477795    -0.000289    -0.532157   108.945638
	   26 B(7,10,8)       =    109.452301    -0.000291    -0.534076   108.918225
	   27 B(7,10,9)       =    109.482155    -0.000210    -0.321870   109.160286
	   28 B(7,10,14)      =    109.504437     0.000946     1.874094   111.378531
	   29 B(8,10,9)       =    109.458846     0.000049    -0.171297   109.287549
	   30 B(8,10,14)      =    109.478806    -0.000191    -0.316614   109.162192
	   31 B(9,10,14)      =    109.450772    -0.000304    -0.543322   108.907451
	   32 B(10,14,11)     =    109.488965     0.000330     0.738754   110.227719
	   33 B(10,14,12)     =    109.503926     0.000354     0.783593   110.287519
	   34 B(10,14,13)     =    109.524173     0.000065     0.124909   109.649082
	   35 B(11,14,12)     =    109.458432    -0.000338    -0.739763   108.718669
	   36 B(11,14,13)     =    109.438058    -0.000216    -0.480686   108.957373
	   37 B(12,14,13)     =    109.413709    -0.000196    -0.445183   108.968526
	   38 D(1,4,7,5)      =    179.984320     0.000033     0.417888   180.402207
	   39 D(1,4,7,6)      =    -60.030134    -0.000023    -0.308383   -60.338516
	   40 D(1,4,7,10)     =     60.030556     0.000001    -0.011085    60.019471
	   41 D(2,4,7,5)      =    -60.033914     0.000034     0.461623   -59.572291
	   42 D(2,4,7,6)      =     59.951633    -0.000022    -0.264648    59.686985
	   43 D(2,4,7,10)     =   -179.987678     0.000002     0.032650  -179.955028
	   44 D(3,4,7,5)      =     59.936938     0.000029     0.409268    60.346206
	   45 D(3,4,7,6)      =    179.922484    -0.000027    -0.317002   179.605482
	   46 D(3,4,7,10)     =    -60.016826    -0.000002    -0.019705   -60.036531
	   47 D(4,7,10,8)     =     49.998642     0.000025     0.378990    50.377632
	   48 D(4,7,10,9)     =    169.978597    -0.000032    -0.343609   169.634988
	   49 D(4,7,10,14)    =    -70.019399    -0.000013    -0.053442   -70.072842
	   50 D(5,7,10,8)     =    -69.914779     0.000006     0.073164   -69.841615
	   51 D(5,7,10,9)     =     50.065176    -0.000051    -0.649435    49.415740
	   52 D(5,7,10,14)    =    170.067179    -0.000033    -0.359268   169.707911
	   53 D(6,7,10,8)     =    170.092340     0.000062     0.792442   170.884781
	   54 D(6,7,10,9)     =    -69.927706     0.000005     0.069842   -69.857863
	   55 D(6,7,10,14)    =     50.074298     0.000024     0.360009    50.434307
	   56 D(7,10,14,11)   =    179.989448     0.000003     0.038579   180.028026
	   57 D(7,10,14,12)   =     59.974196     0.000001    -0.002305    59.971891
	   58 D(7,10,14,13)   =    -60.007849    -0.000002    -0.017772   -60.025620
	   59 D(8,10,14,11)   =     59.987626    -0.000022    -0.266442    59.721184
	   60 D(8,10,14,12)   =    -60.027626    -0.000023    -0.307325   -60.334952
	   61 D(8,10,14,13)   =    179.990329    -0.000027    -0.322792   179.667537
	   62 D(9,10,14,11)   =    -59.989345     0.000034     0.458412   -59.530932
	   63 D(9,10,14,12)   =    179.995403     0.000033     0.417529   180.412932
	   64 D(9,10,14,13)   =     60.013359     0.000029     0.402062    60.415421
	 ---------------------------------------------------------------------------
	Successfully symmetrized geometry.
	 Forces used to impose fixed constraints are not included.
	  Forces zeroed: 49 

  ==> Convergence Check <==

  Measures of convergence in internal coordinates in au.
  Criteria marked as inactive (o), active & met (*), and active & unmet ( ).
  --------------------------------------------------------------------------------------------- ~
   Step     Total Energy     Delta E     MAX Force     RMS Force      MAX Disp      RMS Disp    ~
  --------------------------------------------------------------------------------------------- ~
    Convergence Criteria    1.00e-06 *    3.00e-04 *             o    1.20e-03 *             o  ~
  --------------------------------------------------------------------------------------------- ~
      1    -158.15547939   -1.58e+02      1.35e-02      5.78e-03 o    3.27e-02      1.26e-02 o  ~
  ---------------------------------------------------------------------------------------------

	Writing optimization data to binary file.
	Structure for next step:
	Cartesian Geometry (in Angstrom)
	    H     0.2161118952   1.0704433766   1.4922572782
	    H    -1.1763197528   2.0559027084   1.0704813199
	    H    -1.4030882267   0.3858324386   1.5786932058
	    C    -0.7595882072   1.0583509726   1.0284837386
	    H    -1.6363319942   0.5937348155  -0.8730259425
	    H    -0.0096926160   1.2723982924  -0.9740724295
	    C    -0.6493543790   0.5906076600  -0.4288930388
	    H    -0.6052445847  -1.4750172171   0.1538735264
	    H    -0.1673803089  -1.1900850745  -1.5324284132
	    C    -0.0609439874  -0.8251737188  -0.5192013045
	    H     1.8205596648  -1.8425792201  -0.2099669701
	    H     1.5568045243  -0.4842235482   0.8723734338
	    H     1.9781232266  -0.1955078238  -0.8114585418
	    C     1.4255294415  -0.8382887633  -0.1396436192
			--------------------------
			 OPTKING Finished Execution 
			--------------------------

    Structure for next step:
    Molecular point group: c1
    Full point group: C1

    Geometry (in Angstrom), charge = 0, multiplicity = 1:

    H            0.215324264331     1.070127486499     1.491195341239
    H           -1.177107383767     2.055586818274     1.069419383006
    H           -1.403875857645     0.385516548539     1.577631268859
    C           -0.760375838139     1.058035082517     1.027421801641
    H           -1.637119625131     0.593418925405    -0.874087879406
    H           -0.010480246936     1.272082402363    -0.975134366455
    C           -0.650142009917     0.590291769896    -0.429954975733
    H           -0.606032215635    -1.475333107149     0.152811589434
    H           -0.168167939782    -1.190400964541    -1.533490350178
    C           -0.061731618268    -0.825489608858    -0.520263241410
    H            1.819772033881    -1.842895110175    -0.211028907033
    H            1.556016893406    -0.484539438250     0.871311496878
    H            1.977335595677    -0.195823713875    -0.812520478788
    C            1.424741810555    -0.838604653340    -0.140705556152

gradient() will perform analytic gradient computation.

*** tstart() called on gpu-1-16.local
*** at Wed Jun 14 14:31:07 2017

    SCF Algorithm Type (re)set to DF.

*** tstart() called on gpu-1-16.local
*** at Wed Jun 14 14:31:07 2017

   => Loading Basis Set <=

    Name: AUG-CC-PVTZ
    Role: ORBITAL
    Keyword: BASIS
    atoms 1-3, 5-6, 8-9, 11-13 entry H          line    34 file /cbio/jclab/home/chayas/anaconda/envs/py35/share/psi4/basis/aug-cc-pvtz.gbs 
    atoms 4, 7, 10, 14         entry C          line   221 file /cbio/jclab/home/chayas/anaconda/envs/py35/share/psi4/basis/aug-cc-pvtz.gbs 


         ---------------------------------------------------------
                                   SCF
            by Justin Turney, Rob Parrish, and Andy Simmonett
                              RHF Reference
                        1 Threads,    953 MiB Core
         ---------------------------------------------------------

  ==> Geometry <==

    Molecular point group: c1
    Full point group: C1

    Geometry (in Angstrom), charge = 0, multiplicity = 1:

       Center              X                  Y                   Z               Mass       
    ------------   -----------------  -----------------  -----------------  -----------------
           H          0.215324264331     1.070127486499     1.491195341239     1.007825032070
           H         -1.177107383767     2.055586818274     1.069419383006     1.007825032070
           H         -1.403875857645     0.385516548539     1.577631268859     1.007825032070
           C         -0.760375838139     1.058035082517     1.027421801641    12.000000000000
           H         -1.637119625131     0.593418925405    -0.874087879406     1.007825032070
           H         -0.010480246936     1.272082402363    -0.975134366455     1.007825032070
           C         -0.650142009917     0.590291769896    -0.429954975733    12.000000000000
           H         -0.606032215635    -1.475333107149     0.152811589434     1.007825032070
           H         -0.168167939782    -1.190400964541    -1.533490350178     1.007825032070
           C         -0.061731618268    -0.825489608858    -0.520263241410    12.000000000000
           H          1.819772033881    -1.842895110175    -0.211028907033     1.007825032070
           H          1.556016893406    -0.484539438250     0.871311496878     1.007825032070
           H          1.977335595677    -0.195823713875    -0.812520478788     1.007825032070
           C          1.424741810555    -0.838604653340    -0.140705556152    12.000000000000

  Running in c1 symmetry.

  Rotational constants: A =      0.44418  B =      0.16171  C =      0.13924 [cm^-1]
  Rotational constants: A =  13316.24587  B =   4848.07113  C =   4174.35599 [MHz]
  Nuclear repulsion =  133.459234294485640

  Charge       = 0
  Multiplicity = 1
  Electrons    = 34
  Nalpha       = 17
  Nbeta        = 17

  ==> Algorithm <==

  SCF Algorithm Type is DF.
  DIIS enabled.
  MOM disabled.
  Fractional occupation disabled.
  Guess Type is READ.
  Energy threshold   = 1.00e-10
  Density threshold  = 1.00e-10
  Integral threshold = 0.00e+00

  ==> Primary Basis <==

  Basis Set: AUG-CC-PVTZ
    Blend: AUG-CC-PVTZ
    Number of shells: 146
    Number of basis function: 414
    Number of Cartesian functions: 470
    Spherical Harmonics?: true
    Max angular momentum: 3

   => Loading Basis Set <=

    Name: (AUG-CC-PVTZ AUX)
    Role: JKFIT
    Keyword: DF_BASIS_SCF
    atoms 1-3, 5-6, 8-9, 11-13 entry H          line    69 file /cbio/jclab/home/chayas/anaconda/envs/py35/share/psi4/basis/aug-cc-pvtz-jkfit.gbs 
    atoms 4, 7, 10, 14         entry C          line   161 file /cbio/jclab/home/chayas/anaconda/envs/py35/share/psi4/basis/aug-cc-pvtz-jkfit.gbs 

  Reading orbitals from file 180, no projection.

  ==> Pre-Iterations <==

   -------------------------------------------------------
    Irrep   Nso     Nmo     Nalpha   Nbeta   Ndocc  Nsocc
   -------------------------------------------------------
     A        414     414       0       0       0       0
   -------------------------------------------------------
    Total     414     414      17      17      17       0
   -------------------------------------------------------

  ==> Integral Setup <==

  ==> DFJK: Density-Fitted J/K Matrices <==

    J tasked:                  Yes
    K tasked:                  Yes
    wK tasked:                  No
    OpenMP threads:              1
    Integrals threads:           1
    Memory (MB):               715
    Algorithm:                Core
    Integral Cache:           NONE
    Schwarz Cutoff:          1E-12
    Fitting Condition:       1E-12

   => Auxiliary Basis Set <=

  Basis Set: (AUG-CC-PVTZ AUX)
    Blend: AUG-CC-PVTZ-JKFIT
    Number of shells: 260
    Number of basis function: 876
    Number of Cartesian functions: 1074
    Spherical Harmonics?: true
    Max angular momentum: 4

  Minimum eigenvalue in the overlap matrix is 7.2956412653E-06.
  Using Symmetric Orthogonalization.

  SCF Guess: Orbitals guess was supplied from a previous computation.

  ==> Iterations <==

                           Total Energy        Delta E     RMS |[F,P]|

   @DF-RHF iter   0:  -157.27298778612840   -1.57273e+02   1.55978e-04 
   @DF-RHF iter   1:  -157.35257542539330   -7.95876e-02   6.47029e-05 
   @DF-RHF iter   2:  -157.35299615375371   -4.20728e-04   3.41264e-05 DIIS
   @DF-RHF iter   3:  -157.35309515144687   -9.89977e-05   5.11889e-06 DIIS
   @DF-RHF iter   4:  -157.35310087956944   -5.72812e-06   1.07451e-06 DIIS
   @DF-RHF iter   5:  -157.35310110312898   -2.23560e-07   3.16087e-07 DIIS
   @DF-RHF iter   6:  -157.35310111848452   -1.53555e-08   7.36739e-08 DIIS
   @DF-RHF iter   7:  -157.35310111945657   -9.72051e-10   1.69492e-08 DIIS
   @DF-RHF iter   8:  -157.35310111951026   -5.36886e-11   3.69283e-09 DIIS
   @DF-RHF iter   9:  -157.35310111951330   -3.04112e-12   6.58656e-10 DIIS
   @DF-RHF iter  10:  -157.35310111951173    1.56319e-12   1.19565e-10 DIIS
   @DF-RHF iter  11:  -157.35310111951281   -1.08002e-12   2.49527e-11 DIIS

  ==> Post-Iterations <==

    Orbital Energies (a.u.)
    -----------------------

    Doubly Occupied:                                                      

       1A    -11.210598     2A    -11.210003     3A    -11.203595  
       4A    -11.203532     5A     -1.071599     6A     -0.975083  
       7A     -0.872156     8A     -0.779323     9A     -0.626428  
      10A     -0.625174    11A     -0.576946    12A     -0.533912  
      13A     -0.530034    14A     -0.503964    15A     -0.468664  
      16A     -0.456505    17A     -0.453377  

    Virtual:                                                              

      18A      0.032069    19A      0.037869    20A      0.039323  
      21A      0.040884    22A      0.057561    23A      0.059186  
      24A      0.060540    25A      0.061299    26A      0.071554  
      27A      0.086270    28A      0.110176    29A      0.121816  
      30A      0.123213    31A      0.125559    32A      0.129062  
      33A      0.131257    34A      0.137971    35A      0.143573  
      36A      0.150295    37A      0.152528    38A      0.162626  
      39A      0.166903    40A      0.171191    41A      0.190377  
      42A      0.214475    43A      0.215403    44A      0.227933  
      45A      0.244291    46A      0.262720    47A      0.264203  
      48A      0.283325    49A      0.283959    50A      0.297091  
      51A      0.300734    52A      0.302664    53A      0.310224  
      54A      0.320977    55A      0.326654    56A      0.333937  
      57A      0.344541    58A      0.355414    59A      0.359671  
      60A      0.359836    61A      0.364311    62A      0.368712  
      63A      0.376335    64A      0.383864    65A      0.388082  
      66A      0.393809    67A      0.406725    68A      0.409113  
      69A      0.424216    70A      0.426794    71A      0.430921  
      72A      0.437865    73A      0.442113    74A      0.444106  
      75A      0.452921    76A      0.462266    77A      0.469144  
      78A      0.470203    79A      0.476694    80A      0.481071  
      81A      0.492322    82A      0.498666    83A      0.501530  
      84A      0.510249    85A      0.513913    86A      0.518411  
      87A      0.525697    88A      0.528693    89A      0.544618  
      90A      0.554864    91A      0.557905    92A      0.569631  
      93A      0.572963    94A      0.586253    95A      0.592392  
      96A      0.604312    97A      0.613034    98A      0.622289  
      99A      0.623079   100A      0.634210   101A      0.641397  
     102A      0.657196   103A      0.672248   104A      0.683517  
     105A      0.691140   106A      0.719376   107A      0.743356  
     108A      0.790745   109A      0.795637   110A      0.802540  
     111A      0.822429   112A      0.824823   113A      0.835341  
     114A      0.838326   115A      0.839070   116A      0.856803  
     117A      0.869337   118A      0.873835   119A      0.875248  
     120A      0.889711   121A      0.891794   122A      0.898375  
     123A      0.907428   124A      0.911834   125A      0.923497  
     126A      0.928079   127A      0.936298   128A      0.951820  
     129A      0.963163   130A      0.971019   131A      0.976264  
     132A      0.992414   133A      0.998010   134A      1.006580  
     135A      1.009456   136A      1.020114   137A      1.034160  
     138A      1.045004   139A      1.055742   140A      1.059124  
     141A      1.073540   142A      1.090253   143A      1.091874  
     144A      1.109572   145A      1.115626   146A      1.124080  
     147A      1.127303   148A      1.145404   149A      1.153348  
     150A      1.158911   151A      1.163671   152A      1.192065  
     153A      1.192107   154A      1.197205   155A      1.211806  
     156A      1.217860   157A      1.231622   158A      1.235551  
     159A      1.247032   160A      1.265265   161A      1.266669  
     162A      1.270654   163A      1.282712   164A      1.299120  
     165A      1.299623   166A      1.321641   167A      1.323102  
     168A      1.354366   169A      1.367981   170A      1.376100  
     171A      1.387523   172A      1.391129   173A      1.421924  
     174A      1.430715   175A      1.438736   176A      1.474811  
     177A      1.476611   178A      1.480625   179A      1.492896  
     180A      1.500035   181A      1.537001   182A      1.538949  
     183A      1.552411   184A      1.556884   185A      1.569635  
     186A      1.592098   187A      1.607147   188A      1.616282  
     189A      1.626495   190A      1.636702   191A      1.661354  
     192A      1.672034   193A      1.674835   194A      1.682792  
     195A      1.684709   196A      1.709083   197A      1.713863  
     198A      1.721591   199A      1.732169   200A      1.740734  
     201A      1.752755   202A      1.764556   203A      1.775472  
     204A      1.784561   205A      1.794150   206A      1.798612  
     207A      1.810068   208A      1.815053   209A      1.842523  
     210A      1.866457   211A      1.870000   212A      1.876525  
     213A      1.914138   214A      1.930284   215A      1.948784  
     216A      1.956103   217A      1.969066   218A      1.974013  
     219A      1.986008   220A      1.990085   221A      2.026040  
     222A      2.027376   223A      2.044687   224A      2.047068  
     225A      2.058373   226A      2.079411   227A      2.098621  
     228A      2.138454   229A      2.140173   230A      2.148046  
     231A      2.171760   232A      2.179687   233A      2.191670  
     234A      2.225578   235A      2.227341   236A      2.258750  
     237A      2.263128   238A      2.286703   239A      2.297751  
     240A      2.310842   241A      2.319593   242A      2.329078  
     243A      2.357441   244A      2.375647   245A      2.391806  
     246A      2.395423   247A      2.425395   248A      2.456924  
     249A      2.510127   250A      2.520148   251A      2.556359  
     252A      2.561889   253A      2.580714   254A      2.590817  
     255A      2.595350   256A      2.613392   257A      2.679129  
     258A      2.825221   259A      2.913625   260A      3.053798  
     261A      3.225917   262A      3.249824   263A      3.267408  
     264A      3.374170   265A      3.395416   266A      3.413533  
     267A      3.438490   268A      3.479451   269A      3.520461  
     270A      3.527223   271A      3.536087   272A      3.557429  
     273A      3.572837   274A      3.604756   275A      3.607178  
     276A      3.625848   277A      3.634498   278A      3.674045  
     279A      3.686825   280A      3.700968   281A      3.706208  
     282A      3.719936   283A      3.734508   284A      3.761478  
     285A      3.776226   286A      3.786665   287A      3.808561  
     288A      3.812019   289A      3.837755   290A      3.843256  
     291A      3.847571   292A      3.882598   293A      3.884518  
     294A      3.908765   295A      3.921038   296A      3.953095  
     297A      3.956307   298A      3.973220   299A      3.976053  
     300A      3.986142   301A      3.993885   302A      4.032519  
     303A      4.040131   304A      4.046601   305A      4.047286  
     306A      4.054719   307A      4.077581   308A      4.110107  
     309A      4.118554   310A      4.148694   311A      4.163299  
     312A      4.167827   313A      4.202141   314A      4.222840  
     315A      4.238131   316A      4.263020   317A      4.265162  
     318A      4.297011   319A      4.299561   320A      4.310301  
     321A      4.333794   322A      4.358660   323A      4.362960  
     324A      4.412972   325A      4.421997   326A      4.438414  
     327A      4.474156   328A      4.543302   329A      4.579958  
     330A      4.580140   331A      4.619038   332A      4.657881  
     333A      4.682740   334A      4.693916   335A      4.703014  
     336A      4.735335   337A      4.749969   338A      4.766882  
     339A      4.797198   340A      4.800170   341A      4.829948  
     342A      4.863793   343A      4.879381   344A      4.883288  
     345A      4.883461   346A      4.889163   347A      4.917150  
     348A      4.930017   349A      4.971867   350A      4.974446  
     351A      5.009149   352A      5.046482   353A      5.059703  
     354A      5.091631   355A      5.113392   356A      5.128183  
     357A      5.149416   358A      5.171525   359A      5.199279  
     360A      5.230424   361A      5.249978   362A      5.252420  
     363A      5.286766   364A      5.295672   365A      5.316232  
     366A      5.355571   367A      5.378442   368A      5.387016  
     369A      5.415177   370A      5.443979   371A      5.446039  
     372A      5.464552   373A      5.499333   374A      5.506785  
     375A      5.530728   376A      5.582340   377A      5.585395  
     378A      5.617853   379A      5.643005   380A      5.669477  
     381A      5.700532   382A      5.721533   383A      5.739580  
     384A      5.800442   385A      5.806138   386A      5.821216  
     387A      5.828366   388A      5.909654   389A      5.918171  
     390A      6.012328   391A      6.075963   392A      6.077972  
     393A      6.123141   394A      6.184352   395A      6.200921  
     396A      6.235379   397A      6.272758   398A      6.302240  
     399A      6.310999   400A      6.342264   401A      6.345881  
     402A      6.397120   403A      6.586286   404A      6.592926  
     405A      6.767015   406A      6.770428   407A      6.823686  
     408A      6.882955   409A      6.925553   410A      6.967467  
     411A     17.889427   412A     17.901136   413A     18.474036  
     414A     18.677212  

    Final Occupation by Irrep:
              A 
    DOCC [    17 ]

  Energy converged.

  @DF-RHF Final Energy:  -157.35310111951281

   => Energetics <=

    Nuclear Repulsion Energy =            133.4592342944856398
    One-Electron Energy =                -475.0228890893902189
    Two-Electron Energy =                 184.2105536753917363
    DFT Exchange-Correlation Energy =       0.0000000000000000
    Empirical Dispersion Energy =           0.0000000000000000
    PCM Polarization Energy =               0.0000000000000000
    EFP Energy =                            0.0000000000000000
    Total Energy =                       -157.3531011195128144



Properties will be evaluated at   0.000000,   0.000000,   0.000000 Bohr

Properties computed using the SCF density matrix

  Nuclear Dipole Moment: (a.u.)
     X:     0.5303      Y:     0.1760      Z:     0.7088

  Electronic Dipole Moment: (a.u.)
     X:    -0.5527      Y:    -0.1836      Z:    -0.7386

  Dipole Moment: (a.u.)
     X:    -0.0224      Y:    -0.0075      Z:    -0.0297     Total:     0.0380

  Dipole Moment: (Debye)
     X:    -0.0568      Y:    -0.0192      Z:    -0.0756     Total:     0.0965


*** tstop() called on gpu-1-16.local at Wed Jun 14 14:32:30 2017
Module time:
	user time   =      82.50 seconds =       1.38 minutes
	system time =       0.65 seconds =       0.01 minutes
	total time  =         83 seconds =       1.38 minutes
Total time:
	user time   =     466.19 seconds =       7.77 minutes
	system time =       4.44 seconds =       0.07 minutes
	total time  =        473 seconds =       7.88 minutes

  //>>>>>>>>>>>>>>>>>>>>>>>>>>>>>>>>>>>//
  //               DFMP2               //
  //<<<<<<<<<<<<<<<<<<<<<<<<<<<<<<<<<<<//

   => Loading Basis Set <=

    Name: (AUG-CC-PVTZ AUX)
    Role: RIFIT
    Keyword: DF_BASIS_MP2
    atoms 1-3, 5-6, 8-9, 11-13 entry H          line    29 file /cbio/jclab/home/chayas/anaconda/envs/py35/share/psi4/basis/aug-cc-pvtz-ri.gbs 
    atoms 4, 7, 10, 14         entry C          line   147 file /cbio/jclab/home/chayas/anaconda/envs/py35/share/psi4/basis/aug-cc-pvtz-ri.gbs 

	 --------------------------------------------------------
	                          DF-MP2                         
	      2nd-Order Density-Fitted Moller-Plesset Theory     
	              RMP2 Wavefunction,   1 Threads             
	                                                         
	        Rob Parrish, Justin Turney, Andy Simmonett,      
	           Ed Hohenstein, and C. David Sherrill          
	 --------------------------------------------------------

   => Auxiliary Basis Set <=

  Basis Set: (AUG-CC-PVTZ AUX)
    Blend: AUG-CC-PVTZ-RI
    Number of shells: 252
    Number of basis function: 884
    Number of Cartesian functions: 1094
    Spherical Harmonics?: true
    Max angular momentum: 4

	 --------------------------------------------------------
	                 NBF =   414, NAUX =   884
	 --------------------------------------------------------
	   CLASS    FOCC     OCC    AOCC    AVIR     VIR    FVIR
	   PAIRS       0      17      17     397     397       0
	 --------------------------------------------------------


         ------------------------------------------------------------
                                     CPHF                           
                                  Rob Parrish                       
         ------------------------------------------------------------

  ==> Geometry <==

    Molecular point group: c1
    Full point group: C1

    Geometry (in Angstrom), charge = 0, multiplicity = 1:

       Center              X                  Y                   Z               Mass       
    ------------   -----------------  -----------------  -----------------  -----------------
           H          0.215324264331     1.070127486499     1.491195341239     1.007825032070
           H         -1.177107383767     2.055586818274     1.069419383006     1.007825032070
           H         -1.403875857645     0.385516548539     1.577631268859     1.007825032070
           C         -0.760375838139     1.058035082517     1.027421801641    12.000000000000
           H         -1.637119625131     0.593418925405    -0.874087879406     1.007825032070
           H         -0.010480246936     1.272082402363    -0.975134366455     1.007825032070
           C         -0.650142009917     0.590291769896    -0.429954975733    12.000000000000
           H         -0.606032215635    -1.475333107149     0.152811589434     1.007825032070
           H         -0.168167939782    -1.190400964541    -1.533490350178     1.007825032070
           C         -0.061731618268    -0.825489608858    -0.520263241410    12.000000000000
           H          1.819772033881    -1.842895110175    -0.211028907033     1.007825032070
           H          1.556016893406    -0.484539438250     0.871311496878     1.007825032070
           H          1.977335595677    -0.195823713875    -0.812520478788     1.007825032070
           C          1.424741810555    -0.838604653340    -0.140705556152    12.000000000000

  Nuclear repulsion =  133.459234294485640
  Reference energy  = -157.353101119512814

  ==> Basis Set <==

  Basis Set: AUG-CC-PVTZ
    Blend: AUG-CC-PVTZ
    Number of shells: 146
    Number of basis function: 414
    Number of Cartesian functions: 470
    Spherical Harmonics?: true
    Max angular momentum: 3

  ==> CGRSolver (by Rob Parrish) <==

   Number of roots    =         1
   Preconditioning    =    JACOBI
   Convergence cutoff =     1E-06
   Maximum iterations =       100

  ==> CPHFRHamiltonian (by Rob Parrish) <== 

  ==> DFJK: Density-Fitted J/K Matrices <==

    J tasked:                  Yes
    K tasked:                  Yes
    wK tasked:                  No
    OpenMP threads:              1
    Integrals threads:           1
    Memory (MB):               715
    Algorithm:                Core
    Integral Cache:           NONE
    Schwarz Cutoff:          1E-12
    Fitting Condition:       1E-12

   => Auxiliary Basis Set <=

  Basis Set: (AUG-CC-PVTZ AUX)
    Blend: AUG-CC-PVTZ-JKFIT
    Number of shells: 260
    Number of basis function: 876
    Number of Cartesian functions: 1074
    Spherical Harmonics?: true
    Max angular momentum: 4

  ==> CPHF Iterations <==

  => Iterations <=

             Iter  Converged  Remaining    Residual
  CGR           1          0          1   8.592E-02
  CGR           2          0          1   1.357E-02
  CGR           3          0          1   3.247E-03
  CGR           4          0          1   8.118E-04
  CGR           5          0          1   1.784E-04
  CGR           6          0          1   3.225E-05
  CGR           7          0          1   5.626E-06
  CGR           8          0          1   1.112E-06
  CGR           9          1          0   1.440E-07

    CGRSolver converged.

  ==> DFCorrGrad: Density-Fitted Correlated Gradients <==

    OpenMP threads:              1
    Integrals threads:           1
    Memory (MB):               715
    Schwarz Cutoff:          0E+00
    Fitting Condition:       1E-12

   => Auxiliary Basis Set <=

  Basis Set: (AUG-CC-PVTZ AUX)
    Blend: AUG-CC-PVTZ-JKFIT
    Number of shells: 260
    Number of basis function: 876
    Number of Cartesian functions: 1074
    Spherical Harmonics?: true
    Max angular momentum: 4

	-----------------------------------------------------------
	 ==================> DF-MP2 Energies <==================== 
	-----------------------------------------------------------
	 Reference Energy          =    -157.3531011195128144 [Eh]
	 Singles Energy            =      -0.0000000000000000 [Eh]
	 Same-Spin Energy          =      -0.1658561862112546 [Eh]
	 Opposite-Spin Energy      =      -0.6396882040472571 [Eh]
	 Correlation Energy        =      -0.8055443902585117 [Eh]
	 Total Energy              =    -158.1586455097713326 [Eh]
	-----------------------------------------------------------
	 ================> DF-SCS-MP2 Energies <================== 
	-----------------------------------------------------------
	 SCS Same-Spin Scale       =       0.3333333333333333 [-]
	 SCS Opposite-Spin Scale   =       1.2000000000000000 [-]
	 SCS Same-Spin Energy      =      -0.0552853954037515 [Eh]
	 SCS Opposite-Spin Energy  =      -0.7676258448567085 [Eh]
	 SCS Correlation Energy    =      -0.8229112402604600 [Eh]
	 SCS Total Energy          =    -158.1760123597732672 [Eh]
	-----------------------------------------------------------


  -Total Gradient:
     Atom            X                  Y                   Z
    ------   -----------------  -----------------  -----------------
       1       -0.002310307776    -0.001219659233    -0.003632681151
       2        0.001183991261    -0.003175507715    -0.002303437948
       3        0.002332884015     0.001893469690    -0.003593822150
       4       -0.000817170224     0.001899690357     0.015089528615
       5        0.002977544023    -0.002059804762     0.003677167703
       6       -0.000719653942    -0.003455151358     0.004729902947
       7       -0.002701626283     0.011639501269    -0.015275007792
       8        0.003787745231     0.004423298146    -0.000535708134
       9        0.001968849383     0.003711174101     0.003051790698
      10       -0.010400021769    -0.015975265245    -0.002750882659
      11       -0.003340170837     0.002761066908    -0.000369020348
      12       -0.002864273339    -0.000526059623    -0.003511128964
      13       -0.003520207730    -0.002126937347     0.001805635798
      14        0.014422417988     0.002210184814     0.003617663386


*** tstop() called on gpu-1-16.local at Wed Jun 14 14:38:02 2017
Module time:
	user time   =     411.00 seconds =       6.85 minutes
	system time =       3.92 seconds =       0.07 minutes
	total time  =        415 seconds =       6.92 minutes
Total time:
	user time   =     794.69 seconds =      13.24 minutes
	system time =       7.71 seconds =       0.13 minutes
	total time  =        805 seconds =      13.42 minutes

			-----------------------------------------
			 OPTKING 2.0: for geometry optimizations 
			  - R.A. King,  Bethel University        
			-----------------------------------------

	Previous internal coordinate definitions found.
	---Fragment 1 Geometry and Gradient---
	 H           0.4069038893        2.0222478768        2.8179508056
	 H          -2.2244105843        3.8844961289        2.0209097551
	 H          -2.6529408955        0.7285206964        2.9812910368
	 C          -1.4369020921        1.9993965449        1.9415458281
	 H          -3.0937077383        1.1213992511       -1.6517867082
	 H          -0.0198047965        2.4038873589       -1.8427368954
	 C          -1.2285903462        1.1154897836       -0.8124971536
	 H          -1.1452349153       -2.7879755273        0.2887720540
	 H          -0.3177913505       -2.2495318113       -2.8978767893
	 C          -0.1166558523       -1.5599492863       -0.9831550433
	 H           3.4388707683       -3.4825670499       -0.3987868404
	 H           2.9404457867       -0.9156468389        1.6465401055
	 H           3.7366227486       -0.3700531895       -1.5354411823
	 C           2.6923718320       -1.5847331286       -0.2658949665
	            -0.0023103078       -0.0012196592       -0.0036326812
	             0.0011839913       -0.0031755077       -0.0023034379
	             0.0023328840        0.0018934697       -0.0035938221
	            -0.0008171702        0.0018996904        0.0150895286
	             0.0029775440       -0.0020598048        0.0036771677
	            -0.0007196539       -0.0034551514        0.0047299029
	            -0.0027016263        0.0116395013       -0.0152750078
	             0.0037877452        0.0044232981       -0.0005357081
	             0.0019688494        0.0037111741        0.0030517907
	            -0.0104000218       -0.0159752652       -0.0027508827
	            -0.0033401708        0.0027610669       -0.0003690203
	            -0.0028642733       -0.0005260596       -0.0035111290
	            -0.0035202077       -0.0021269373        0.0018056358
	             0.0144224180        0.0022101848        0.0036176634

	---Fragment 1 Intrafragment Coordinates---
	 - Coordinate -           - BOHR/RAD -       - ANG/DEG -
	 R(1,4)           =         2.041624	       1.080381
	 R(2,4)           =         2.044522	       1.081914
	 R(3,4)           =         2.043268	       1.081251
	 R(4,7)           =         2.899903	       1.534563
	 R(5,7)           =         2.045264	       1.082307
	 R(6,7)           =         2.045122	       1.082232
	 R(7,10)          =         2.902326	       1.535845
	 R(8,10)          =         2.045439	       1.082400
	 R(9,10)          =         2.045028	       1.082182
	 R(10,14)         =         2.899261	       1.534223
	 R(11,14)         =         2.043696	       1.081477
	 R(12,14)         =         2.041231	       1.080173
	 R(13,14)         =         2.043931	       1.081602
	 B(1,4,2)         =         1.897450	     108.715883
	 B(1,4,3)         =         1.902867	     109.026258
	 B(1,4,7)         =         1.924330	     110.255972
	 B(2,4,3)         =         1.901271	     108.934814
	 B(2,4,7)         =         1.923645	     110.216762
	 B(3,4,7)         =         1.913927	     109.659933
	 B(4,7,5)         =         1.900042	     108.864411
	 B(4,7,6)         =         1.905884	     109.199084
	 B(4,7,10)        =         1.943722	     111.367061
	 B(5,7,6)         =         1.907585	     109.296564
	 B(5,7,10)        =         1.904884	     109.141828
	 B(6,7,10)        =         1.901460	     108.945638
	 B(7,10,8)        =         1.900982	     108.918225
	 B(7,10,9)        =         1.905206	     109.160286
	 B(7,10,14)       =         1.943922	     111.378531
	 B(8,10,9)        =         1.907428	     109.287549
	 B(8,10,14)       =         1.905240	     109.162192
	 B(9,10,14)       =         1.900794	     108.907451
	 B(10,14,11)      =         1.923837	     110.227719
	 B(10,14,12)      =         1.924880	     110.287519
	 B(10,14,13)      =         1.913738	     109.649082
	 B(11,14,12)      =         1.897499	     108.718669
	 B(11,14,13)      =         1.901665	     108.957373
	 B(12,14,13)      =         1.901860	     108.968526
	 D(1,4,7,5)       =        -3.134573	    -179.597793
	 D(1,4,7,6)       =        -1.053106	     -60.338516
	 D(1,4,7,10)      =         1.047537	      60.019471
	 D(2,4,7,5)       =        -1.039733	     -59.572291
	 D(2,4,7,6)       =         1.041734	      59.686985
	 D(2,4,7,10)      =        -3.140808	    -179.955028
	 D(3,4,7,5)       =         1.053240	      60.346206
	 D(3,4,7,6)       =         3.134707	     179.605482
	 D(3,4,7,10)      =        -1.047835	     -60.036531
	 D(4,7,10,8)      =         0.879256	      50.377632
	 D(4,7,10,9)      =         2.960689	     169.634988
	 D(4,7,10,14)     =        -1.223002	     -70.072842
	 D(5,7,10,8)      =        -1.218966	     -69.841615
	 D(5,7,10,9)      =         0.862467	      49.415740
	 D(5,7,10,14)     =         2.961962	     169.707911
	 D(6,7,10,8)      =         2.982502	     170.884781
	 D(6,7,10,9)      =        -1.219250	     -69.857863
	 D(6,7,10,14)     =         0.880245	      50.434307
	 D(7,10,14,11)    =        -3.141103	    -179.971974
	 D(7,10,14,12)    =         1.046707	      59.971891
	 D(7,10,14,13)    =        -1.047645	     -60.025620
	 D(8,10,14,11)    =         1.042331	      59.721184
	 D(8,10,14,12)    =        -1.053044	     -60.334952
	 D(8,10,14,13)    =         3.135790	     179.667537
	 D(9,10,14,11)    =        -1.039011	     -59.530932
	 D(9,10,14,12)    =        -3.134386	    -179.587068
	 D(9,10,14,13)    =         1.054448	      60.415421

	Current energy   :      -158.1586455098

	Energy change for the previous step:
		Projected    :        -0.0045384153
		Actual       :        -0.0031661171

	Performing BFGS update.
	Previous computed or guess Hessian on step 1.
	Steps to be used in Hessian update: 1
	Adding user-defined constraint: Fragment 1; Coordinate 49:
		Value =    -1.223002; Fixed value    =    -1.221730
		Force =     0.000668; Force constant =     0.525000
	Removing off-diagonal coupling between coordinate 49 and others.
	Taking RFO optimization step.
	Going to follow RFO solution 1.
	Using RFO vector 1.

	Determining step-restricting scale parameter for RS-RFO.
	Maximum step size allowed    0.10000

	 Iter      |step|        alpha        rfo_root  
	------------------------------------------------
	    0     0.15465       1.00000           1
	    1     0.13041       5.38614           1
	    2     0.10981      14.54735           1
	    3     0.10144      20.70142           1
	    4     0.10004      21.93496           1
	    5     0.10000      21.96981           1
	------------------------------------------------
	Norm of target step-size    0.10000
	Projected energy change by RFO approximation:        -0.0015107743

	Back-transformation to cartesian coordinates...
	Could not converge backtransformation.
	Using first guess instead.

	--- Internal Coordinate Step in ANG or DEG, aJ/ANG or AJ/DEG ---
	 ---------------------------------------------------------------------------
	   Coordinate                Previous        Force       Change         New 
	   ----------                --------       ------       ------       ------
	    1 R(1,4)          =      1.080381     0.030150     0.006553     1.086934
	    2 R(2,4)          =      1.081914     0.028616     0.005245     1.087159
	    3 R(3,4)          =      1.081251     0.036208     0.006849     1.088100
	    4 R(4,7)          =      1.534563    -0.041758    -0.011137     1.523425
	    5 R(5,7)          =      1.082307     0.034851     0.006424     1.088731
	    6 R(6,7)          =      1.082232     0.041068     0.007886     1.090118
	    7 R(7,10)         =      1.535845    -0.041480    -0.011691     1.524154
	    8 R(8,10)         =      1.082400     0.040316     0.007757     1.090157
	    9 R(9,10)         =      1.082182     0.035446     0.006526     1.088708
	   10 R(10,14)        =      1.534223    -0.040481    -0.010832     1.523391
	   11 R(11,14)        =      1.081477     0.030978     0.005652     1.087129
	   12 R(12,14)        =      1.080173     0.031391     0.006756     1.086929
	   13 R(13,14)        =      1.081602     0.034471     0.006545     1.088147
	   14 B(1,4,2)        =    108.715883    -0.000194    -0.798233   107.917650
	   15 B(1,4,3)        =    109.026258    -0.000155    -0.738628   108.287629
	   16 B(1,4,7)        =    110.255972     0.000218     0.930500   111.186472
	   17 B(2,4,3)        =    108.934814    -0.000144    -0.651538   108.283276
	   18 B(2,4,7)        =    110.216762     0.000166     0.672547   110.889309
	   19 B(3,4,7)        =    109.659933     0.000099     0.514491   110.174425
	   20 B(4,7,5)        =    108.864411    -0.000065     0.005577   108.869988
	   21 B(4,7,6)        =    109.199084    -0.000048     0.109781   109.308865
	   22 B(4,7,10)       =    111.367061     0.000330     1.158188   112.525249
	   23 B(5,7,6)        =    109.296564    -0.000074    -1.111739   108.184826
	   24 B(5,7,10)       =    109.141828    -0.000066    -0.131802   109.010026
	   25 B(6,7,10)       =    108.945638    -0.000083    -0.097083   108.848555
	   26 B(7,10,8)       =    108.918225    -0.000082    -0.088526   108.829699
	   27 B(7,10,9)       =    109.160286    -0.000066    -0.135334   109.024952
	   28 B(7,10,14)      =    111.378531     0.000329     1.150650   112.529181
	   29 B(8,10,9)       =    109.287549    -0.000074    -1.108415   108.179134
	   30 B(8,10,14)      =    109.162192    -0.000044     0.134257   109.296449
	   31 B(9,10,14)      =    108.907451    -0.000069    -0.019685   108.887765
	   32 B(10,14,11)     =    110.227719     0.000167     0.669231   110.896950
	   33 B(10,14,12)     =    110.287519     0.000209     0.898238   111.185757
	   34 B(10,14,13)     =    109.649082     0.000102     0.529751   110.178833
	   35 B(11,14,12)     =    108.718669    -0.000192    -0.795125   107.923544
	   36 B(11,14,13)     =    108.957373    -0.000147    -0.667067   108.290305
	   37 B(12,14,13)     =    108.968526    -0.000150    -0.705696   108.262831
	   38 D(1,4,7,5)      =   -179.597793     0.000020     0.688092  -178.909701
	   39 D(1,4,7,6)      =    -60.338516    -0.000016    -0.587539   -60.926055
	   40 D(1,4,7,10)     =     60.019471     0.000001     0.112403    60.131874
	   41 D(2,4,7,5)      =    -59.572291     0.000021     0.734920   -58.837372
	   42 D(2,4,7,6)      =     59.686985    -0.000015    -0.540711    59.146274
[...]
  CGR           4          0          1   8.198E-04
  CGR           5          0          1   1.813E-04
  CGR           6          0          1   3.344E-05
  CGR           7          0          1   5.836E-06
  CGR           8          0          1   1.166E-06
  CGR           9          1          0   1.449E-07

    CGRSolver converged.

  ==> DFCorrGrad: Density-Fitted Correlated Gradients <==

    OpenMP threads:              1
    Integrals threads:           1
    Memory (MB):               715
    Schwarz Cutoff:          0E+00
    Fitting Condition:       1E-12

   => Auxiliary Basis Set <=

  Basis Set: (AUG-CC-PVTZ AUX)
    Blend: AUG-CC-PVTZ-JKFIT
    Number of shells: 260
    Number of basis function: 876
    Number of Cartesian functions: 1074
    Spherical Harmonics?: true
    Max angular momentum: 4

	-----------------------------------------------------------
	 ==================> DF-MP2 Energies <==================== 
	-----------------------------------------------------------
	 Reference Energy          =    -157.3545531903074561 [Eh]
	 Singles Energy            =      -0.0000000000000002 [Eh]
	 Same-Spin Energy          =      -0.1658133531596124 [Eh]
	 Opposite-Spin Energy      =      -0.6396089132558562 [Eh]
	 Correlation Energy        =      -0.8054222664154689 [Eh]
	 Total Energy              =    -158.1599754567229184 [Eh]
	-----------------------------------------------------------
	 ================> DF-SCS-MP2 Energies <================== 
	-----------------------------------------------------------
	 SCS Same-Spin Scale       =       0.3333333333333333 [-]
	 SCS Opposite-Spin Scale   =       1.2000000000000000 [-]
	 SCS Same-Spin Energy      =      -0.0552711177198708 [Eh]
	 SCS Opposite-Spin Energy  =      -0.7675306959070275 [Eh]
	 SCS Correlation Energy    =      -0.8228018136268985 [Eh]
	 SCS Total Energy          =    -158.1773550039343661 [Eh]
	-----------------------------------------------------------


  -Total Gradient:
     Atom            X                  Y                   Z
    ------   -----------------  -----------------  -----------------
       1       -0.000005150321    -0.000002751296    -0.000006905577
       2       -0.000000786119    -0.000001679763    -0.000003560743
       3        0.000006588309     0.000008794865    -0.000003095694
       4       -0.000696421901    -0.000310962643     0.000036634138
       5        0.000012965009    -0.000000433556    -0.000007811042
       6       -0.000004881521     0.000002231248     0.000013137024
       7        0.001034034634     0.000481388547    -0.000331475179
       8        0.000014070387     0.000000719556    -0.000000629768
       9       -0.000011101659     0.000001036893     0.000010332003
      10       -0.000513538644    -0.000309915311     0.001024590526
      11       -0.000003867067     0.000000727033    -0.000001912665
      12       -0.000005601720    -0.000000967849    -0.000007792171
      13       -0.000002657706    -0.000007329578     0.000007934975
      14        0.000176348323     0.000139141849    -0.000729445826


*** tstop() called on gpu-1-16.local at Wed Jun 14 15:03:35 2017
Module time:
	user time   =     329.54 seconds =       5.49 minutes
	system time =       3.08 seconds =       0.05 minutes
	total time  =        332 seconds =       5.53 minutes
Total time:
	user time   =    2312.59 seconds =      38.54 minutes
	system time =      21.80 seconds =       0.36 minutes
	total time  =       2338 seconds =      38.97 minutes

			-----------------------------------------
			 OPTKING 2.0: for geometry optimizations 
			  - R.A. King,  Bethel University        
			-----------------------------------------

	Previous internal coordinate definitions found.
	---Fragment 1 Geometry and Gradient---
	 H           0.3748144153        2.1757065036        2.8370591817
	 H          -2.3323001317        3.8941567639        1.9922304642
	 H          -2.6207730110        0.7472278176        3.0273660851
	 C          -1.4589281876        2.0351707966        1.9207422735
	 H          -3.0841289192        1.1024415845       -1.6582921854
	 H          -0.0581961979        2.4105809085       -1.8724396561
	 C          -1.2200079904        1.1011367725       -0.7820275053
	 H          -1.1596162922       -2.8132091735        0.2479451036
	 H          -0.3303475802       -2.2313131890       -2.8964260963
	 C          -0.0948618931       -1.5358523583       -0.9719354515
	 H           3.4488352254       -3.5250127431       -0.5028241573
	 H           3.0028873801       -1.0589875743        1.6686040658
	 H           3.7732620440       -0.3662010113       -1.4900152201
	 C           2.6886001600       -1.6286230711       -0.2804290232
	            -0.0000051503       -0.0000027513       -0.0000069056
	            -0.0000007861       -0.0000016798       -0.0000035607
	             0.0000065883        0.0000087949       -0.0000030957
	            -0.0006964219       -0.0003109626        0.0000366341
	             0.0000129650       -0.0000004336       -0.0000078110
	            -0.0000048815        0.0000022312        0.0000131370
	             0.0010340346        0.0004813885       -0.0003314752
	             0.0000140704        0.0000007196       -0.0000006298
	            -0.0000111017        0.0000010369        0.0000103320
	            -0.0005135386       -0.0003099153        0.0010245905
	            -0.0000038671        0.0000007270       -0.0000019127
	            -0.0000056017       -0.0000009678       -0.0000077922
	            -0.0000026577       -0.0000073296        0.0000079350
	             0.0001763483        0.0001391418       -0.0007294458

	---Fragment 1 Intrafragment Coordinates---
	 - Coordinate -           - BOHR/RAD -       - ANG/DEG -
	 R(1,4)           =         2.054750	       1.087327
	 R(2,4)           =         2.055169	       1.087548
	 R(3,4)           =         2.057498	       1.088781
	 R(4,7)           =         2.869576	       1.518514
	 R(5,7)           =         2.059803	       1.090001
	 R(6,7)           =         2.062389	       1.091369
	 R(7,10)          =         2.873279	       1.520474
	 R(8,10)          =         2.062390	       1.091370
	 R(9,10)          =         2.059802	       1.090000
	 R(10,14)         =         2.869573	       1.518513
	 R(11,14)         =         2.055167	       1.087547
	 R(12,14)         =         2.054748	       1.087326
	 R(13,14)         =         2.057498	       1.088781
	 B(1,4,2)         =         1.877456	     107.570315
	 B(1,4,3)         =         1.882741	     107.873139
	 B(1,4,7)         =         1.947638	     111.591448
	 B(2,4,3)         =         1.883403	     107.911048
	 B(2,4,7)         =         1.941820	     111.258065
	 B(3,4,7)         =         1.928205	     110.478032
	 B(4,7,5)         =         1.901942	     108.973256
	 B(4,7,6)         =         1.915821	     109.768466
	 B(4,7,10)        =         1.975323	     113.177683
	 B(5,7,6)         =         1.859274	     106.528550
	 B(5,7,10)        =         1.903767	     109.077842
	 B(6,7,10)        =         1.904095	     109.096623
	 B(7,10,8)        =         1.904096	     109.096648
	 B(7,10,9)        =         1.903768	     109.077888
	 B(7,10,14)       =         1.975321	     113.177552
	 B(8,10,9)        =         1.859275	     106.528601
	 B(8,10,14)       =         1.915821	     109.768474
	 B(9,10,14)       =         1.901942	     108.973268
	 B(10,14,11)      =         1.941818	     111.257992
	 B(10,14,12)      =         1.947637	     111.591383
	 B(10,14,13)      =         1.928207	     110.478129
	 B(11,14,12)      =         1.877455	     107.570270
	 B(11,14,13)      =         1.883405	     107.911133
	 B(12,14,13)      =         1.882742	     107.873143
	 D(1,4,7,5)       =        -3.080724	    -176.512510
	 D(1,4,7,6)       =        -1.050717	     -60.201665
	 D(1,4,7,10)      =         1.081095	      61.942181
	 D(2,4,7,5)       =        -0.983642	     -56.358556
	 D(2,4,7,6)       =         1.046365	      59.952289
	 D(2,4,7,10)      =        -3.105008	    -177.903865
	 D(3,4,7,5)       =         1.107915	      63.478860
	 D(3,4,7,6)       =         3.137922	     179.789705
	 D(3,4,7,10)      =        -1.013451	     -58.066449
	 D(4,7,10,8)      =         0.918576	      52.630536
	 D(4,7,10,9)      =         2.943076	     168.625811
	 D(4,7,10,14)     =        -1.219771	     -69.887735
	 D(5,7,10,8)      =        -1.201763	     -68.855958
	 D(5,7,10,9)      =         0.822736	      47.139317
	 D(5,7,10,14)     =         2.943075	     168.625771
	 D(6,7,10,8)      =         3.056924	     175.148867
	 D(6,7,10,9)      =        -1.201761	     -68.855858
	 D(6,7,10,14)     =         0.918577	      52.630597
	 D(7,10,14,11)    =        -3.105013	    -177.904146
	 D(7,10,14,12)    =         1.081093	      61.942051
	 D(7,10,14,13)    =        -1.013453	     -58.066607
	 D(8,10,14,11)    =         1.046361	      59.952060
	 D(8,10,14,12)    =        -1.050719	     -60.201742
	 D(8,10,14,13)    =         3.137920	     179.789600
	 D(9,10,14,11)    =        -0.983648	     -56.358858
	 D(9,10,14,12)    =        -3.080727	    -176.512661
	 D(9,10,14,13)    =         1.107912	      63.478682

	Current energy   :      -158.1599754567

	Energy change for the previous step:
		Projected    :        -0.0000009482
		Actual       :        -0.0000012717

	Performing BFGS update.
	Previous computed or guess Hessian on step 1.
	Steps to be used in Hessian update: 5 4
	Adding user-defined constraint: Fragment 1; Coordinate 49:
		Value =    -1.219771; Fixed value    =    -1.221730
		Force =    -0.001224; Force constant =     0.625000
	Removing off-diagonal coupling between coordinate 49 and others.
	Taking RFO optimization step.
	Going to follow RFO solution 1.
	Rejecting RFO root 1 because normalization gives large value.
	Using RFO vector 2.
	Norm of target step-size    0.00396
	Projected energy change by RFO approximation:        -0.0000002892

	Back-transformation to cartesian coordinates...
	Successfully converged to displaced geometry.

	--- Internal Coordinate Step in ANG or DEG, aJ/ANG or AJ/DEG ---
	 ---------------------------------------------------------------------------
	   Coordinate                Previous        Force       Change         New 
	   ----------                --------       ------       ------       ------
	    1 R(1,4)          =      1.087327     0.000065    -0.000050     1.087277
	    2 R(2,4)          =      1.087548     0.000011    -0.000067     1.087481
	    3 R(3,4)          =      1.088781     0.000090    -0.000052     1.088729
	    4 R(4,7)          =      1.518514     0.000166     0.000131     1.518645
	    5 R(5,7)          =      1.090001     0.000069     0.000028     1.090029
	    6 R(6,7)          =      1.091369     0.000068    -0.000022     1.091348
	    7 R(7,10)         =      1.520474    -0.000053     0.000115     1.520588
	    8 R(8,10)         =      1.091370     0.000067    -0.000022     1.091348
	    9 R(9,10)         =      1.090000     0.000072     0.000029     1.090029
	   10 R(10,14)        =      1.518513     0.000174     0.000129     1.518641
	   11 R(11,14)        =      1.087547     0.000016    -0.000069     1.087479
	   12 R(12,14)        =      1.087326     0.000070    -0.000050     1.087276
	   13 R(13,14)        =      1.088781     0.000087    -0.000048     1.088733
	   14 B(1,4,2)        =    107.570315    -0.000000     0.002342   107.572657
	   15 B(1,4,3)        =    107.873139    -0.000000     0.003046   107.876185
	   16 B(1,4,7)        =    111.591448     0.000000    -0.006306   111.585142
	   17 B(2,4,3)        =    107.911048     0.000000     0.001858   107.912906
	   18 B(2,4,7)        =    111.258065     0.000000     0.010979   111.269044
	   19 B(3,4,7)        =    110.478032    -0.000001    -0.011528   110.466504
	   20 B(4,7,5)        =    108.973256     0.000001    -0.015921   108.957335
	   21 B(4,7,6)        =    109.768466    -0.000000     0.010465   109.778931
	   22 B(4,7,10)       =    113.177683    -0.000000    -0.008478   113.169205
	   23 B(5,7,6)        =    106.528550     0.000000     0.002444   106.530994
	   24 B(5,7,10)       =    109.077842     0.000000     0.010201   109.088043
	   25 B(6,7,10)       =    109.096623    -0.000000     0.001936   109.098559
	   26 B(7,10,8)       =    109.096648    -0.000000     0.002058   109.098705
	   27 B(7,10,9)       =    109.077888     0.000000     0.010390   109.088278
	   28 B(7,10,14)      =    113.177552    -0.000000    -0.008526   113.169026
	   29 B(8,10,9)       =    106.528601     0.000000     0.002390   106.530991
	   30 B(8,10,14)      =    109.768474    -0.000000     0.010750   109.779224
	   31 B(9,10,14)      =    108.973268     0.000001    -0.016417   108.956851
	   32 B(10,14,11)     =    111.257992     0.000000     0.010934   111.268925
	   33 B(10,14,12)     =    111.591383     0.000000    -0.006151   111.585231
	   34 B(10,14,13)     =    110.478129    -0.000001    -0.011617   110.466512
	   35 B(11,14,12)     =    107.570270    -0.000000     0.002493   107.572764
	   36 B(11,14,13)     =    107.911133     0.000000     0.001834   107.912968
	   37 B(12,14,13)     =    107.873143    -0.000000     0.002895   107.876038
	   38 D(1,4,7,5)      =   -176.512510     0.000000     0.040109  -176.472402
	   39 D(1,4,7,6)      =    -60.201665     0.000000     0.039827   -60.161838
	   40 D(1,4,7,10)     =     61.942181    -0.000000     0.044099    61.986281
	   41 D(2,4,7,5)      =    -56.358556     0.000000     0.046307   -56.312249
	   42 D(2,4,7,6)      =     59.952289     0.000000     0.046026    59.998315
	   43 D(2,4,7,10)     =   -177.903865    -0.000000     0.050298  -177.853567
	   44 D(3,4,7,5)      =     63.478860     0.000000     0.048178    63.527038
	   45 D(3,4,7,6)      =    179.789705     0.000000     0.047896   179.837601
	   46 D(3,4,7,10)     =    -58.066449    -0.000000     0.052168   -58.014280
	   47 D(4,7,10,8)     =     52.630536     0.000000     0.022256    52.652792
	   48 D(4,7,10,9)     =    168.625811     0.000000     0.032006   168.657816
	   49 D(4,7,10,14)    =    -69.887735     0.000001     0.012775   -69.874960
	   50 D(5,7,10,8)     =    -68.855958     0.000000     0.040957   -68.815001
	   51 D(5,7,10,9)     =     47.139317     0.000000     0.050707    47.190024
	   52 D(5,7,10,14)    =    168.625771     0.000000     0.031476   168.657248
	   53 D(6,7,10,8)     =    175.148867     0.000000     0.031315   175.180182
	   54 D(6,7,10,9)     =    -68.855858     0.000000     0.041065   -68.814793
	   55 D(6,7,10,14)    =     52.630597     0.000000     0.021834    52.652431
	   56 D(7,10,14,11)   =   -177.904146    -0.000000     0.050816  -177.853330
	   57 D(7,10,14,12)   =     61.942051    -0.000000     0.044351    61.986402
	   58 D(7,10,14,13)   =    -58.066607    -0.000000     0.052568   -58.014038
	   59 D(8,10,14,11)   =     59.952060     0.000000     0.046212    59.998272
	   60 D(8,10,14,12)   =    -60.201742     0.000000     0.039746   -60.161996
	   61 D(8,10,14,13)   =    179.789600     0.000000     0.047964   179.837564
	   62 D(9,10,14,11)   =    -56.358858     0.000000     0.046682   -56.312176
	   63 D(9,10,14,12)   =   -176.512661     0.000000     0.040216  -176.472445
	   64 D(9,10,14,13)   =     63.478682     0.000000     0.048434    63.527116
	 ---------------------------------------------------------------------------
	Successfully symmetrized geometry.
	 Forces used to impose fixed constraints are not included.
	  Forces zeroed: 49 

  ==> Convergence Check <==

  Measures of convergence in internal coordinates in au.
  Criteria marked as inactive (o), active & met (*), and active & unmet ( ).
  ---------------------------------------------------------------------------------------------
   Step     Total Energy     Delta E     MAX Force     RMS Force      MAX Disp      RMS Disp   
  ---------------------------------------------------------------------------------------------
    Convergence Criteria    1.00e-06 *    3.00e-04 *             o    1.20e-03 *             o
  ---------------------------------------------------------------------------------------------
      6    -158.15997546   -1.27e-06      2.12e-05 *    8.07e-06 o    9.17e-04 *    4.94e-04 o  ~
  ---------------------------------------------------------------------------------------------


  **** Optimization is complete! (in 6 steps) ****

  ==> Optimization Summary <==

  Measures of convergence in internal coordinates in au.
  --------------------------------------------------------------------------------------------------------------- ~
   Step         Total Energy             Delta E       MAX Force       RMS Force        MAX Disp        RMS Disp  ~
  --------------------------------------------------------------------------------------------------------------- ~
      1    -158.155479392641   -158.155479392641      0.01348002      0.00577649      0.03270911      0.01257361  ~
      2    -158.158645509771     -0.003166117131      0.00506848      0.00244682      0.02955459      0.01251870  ~
      3    -158.159746380500     -0.001100870728      0.00144692      0.00064981      0.03603931      0.01251055  ~
      4    -158.159961614961     -0.000215234461      0.00085140      0.00018444      0.01471126      0.00723418  ~
      5    -158.159974184974     -0.000012570013      0.00012777      0.00004157      0.00293550      0.00144925  ~
      6    -158.159975456723     -0.000001271749      0.00002998      0.00000890      0.00091749      0.00049441  ~
  --------------------------------------------------------------------------------------------------------------- ~

	Writing optimization data to binary file.
	Final energy is   -158.1599754567229
	Final (previous) structure:
	Cartesian Geometry (in Angstrom)
	    H     0.1983432461   1.1513342943   1.5013070584
	    H    -1.2342000733   2.0606990062   1.0542429559
	    H    -1.3868533463   0.3954159307   1.6020131343
	    C    -0.7720315459   1.0769660012   1.0164130347
	    H    -1.6320507324   0.5833869603  -0.8775304297
	    H    -0.0307961016   1.2756244762  -0.9908523905
	    C    -0.6456004228   0.5826964836  -0.4138311323
	    H    -0.6136425125  -1.4886861776   0.1312068978
	    H    -0.1748124103  -1.1807600849  -1.5327226765
	    C    -0.0501987518  -0.8127380638  -0.5143260892
	    H     1.8250449975  -1.8653564036  -0.2660830840
	    H     1.5890595615  -0.5603920885   0.8829872418
	    H     1.9967242757  -0.1937852289  -0.7884820949
	    C     1.4227459277  -0.8618302106  -0.1483966477
	Saving final (previous) structure.
			--------------------------
			 OPTKING Finished Execution 
			--------------------------

    Final optimized geometry and variables:
    Molecular point group: c1
    Full point group: C1

    Geometry (in Angstrom), charge = 0, multiplicity = 1:

    H            0.198343246054     1.151334294276     1.501307058372
    H           -1.234200073298     2.060699006153     1.054242955899
    H           -1.386853346305     0.395415930724     1.602013134280
    C           -0.772031545866     1.076966001151     1.016413034700
    H           -1.632050732395     0.583386960334    -0.877530429672
    H           -0.030796101558     1.275624476241    -0.990852390494
    C           -0.645600422835     0.582696483554    -0.413831132298
    H           -0.613642512527    -1.488686177603     0.131206897795
    H           -0.174812410339    -1.180760084865    -1.532722676505
    C           -0.050198751815    -0.812738063795    -0.514326089155
    H            1.825044997461    -1.865356403613    -0.266083083991
    H            1.589059561522    -0.560392088524     0.882987241797
    H            1.996724275707    -0.193785228940    -0.788482094937
    C            1.422745927699    -0.861830210595    -0.148396647684

	Cleaning optimization helper files.

*** Psi4 exiting successfully. Buy a developer a beer!
