
    -----------------------------------------------------------------------
          Psi4: An Open-Source Ab Initio Electronic Structure Package
                               Psi4 1.1 release

                         Git: Rev {HEAD} add49b9 


    R. M. Parrish, L. A. Burns, D. G. A. Smith, A. C. Simmonett,
    A. E. DePrince III, E. G. Hohenstein, U. Bozkaya, A. Yu. Sokolov,
    R. Di Remigio, R. M. Richard, J. F. Gonthier, A. M. James,
    H. R. McAlexander, A. Kumar, M. Saitow, X. Wang, B. P. Pritchard,
    P. Verma, H. F. Schaefer III, K. Patkowski, R. A. King, E. F. Valeev,
    F. A. Evangelista, J. M. Turney, T. D. Crawford, and C. D. Sherrill,
    J. Chem. Theory Comput. in press (2017).
    (doi: 10.1021/acs.jctc.7b00174)

    -----------------------------------------------------------------------


    Psi4 started on: Wednesday, 14 June 2017 02:24PM

    Process ID:  27293
    PSIDATADIR: /cbio/jclab/home/chayas/anaconda/envs/py35/share/psi4
    Memory:     500.0 MiB
    Threads:    1
    
  ==> Input File <==

--------------------------------------------------------------------------

memory 1000 mb

molecule butane {
  symmetry C1
  0 1 
  H      2.529   1.050   -6.729
  H      1.929   2.398   -7.666
  H      1.615   0.761   -8.189
  C      2.326   1.405   -7.718
  H      3.427   1.771   -9.526
  H      4.343   2.061   -8.067
  C      3.631   1.416   -8.537
  H      3.665   -0.647   -7.940
  H      4.104   -0.384   -9.610
  C      4.203   -0.012   -8.612
  H      6.088   -0.983   -8.270
  H      5.791   0.381   -7.220
  H      6.230   0.644   -8.890
  C      5.691   0.009   -8.218
  units Angstrom
}

dih_string = "14 10 7 4 230"
set optking fixed_dihedral = $dih_string

optimize('MP2/aug-cc-pvtz')
--------------------------------------------------------------------------

  Memory set to 953.674 MiB by Python driver.
gradient() will perform analytic gradient computation.

*** tstart() called on gpu-2-12.local
*** at Wed Jun 14 14:24:09 2017

    SCF Algorithm Type (re)set to DF.

*** tstart() called on gpu-2-12.local
*** at Wed Jun 14 14:24:09 2017

   => Loading Basis Set <=

    Name: AUG-CC-PVTZ
    Role: ORBITAL
    Keyword: BASIS
    atoms 1-3, 5-6, 8-9, 11-13 entry H          line    34 file /cbio/jclab/home/chayas/anaconda/envs/py35/share/psi4/basis/aug-cc-pvtz.gbs 
    atoms 4, 7, 10, 14         entry C          line   221 file /cbio/jclab/home/chayas/anaconda/envs/py35/share/psi4/basis/aug-cc-pvtz.gbs 


         ---------------------------------------------------------
                                   SCF
            by Justin Turney, Rob Parrish, and Andy Simmonett
                              RHF Reference
                        1 Threads,    953 MiB Core
         ---------------------------------------------------------

  ==> Geometry <==

    Molecular point group: c1
    Full point group: C1

    Geometry (in Angstrom), charge = 0, multiplicity = 1:

       Center              X                  Y                   Z               Mass       
    ------------   -----------------  -----------------  -----------------  -----------------
           H         -1.435372494479     0.345378529825     1.531742829871     1.007825032070
           H         -2.035372494479     1.693378529825     0.594742829871     1.007825032070
           H         -2.349372494479     0.056378529825     0.071742829871     1.007825032070
           C         -1.638372494479     0.700378529825     0.542742829871    12.000000000000
           H         -0.537372494479     1.066378529825    -1.265257170129     1.007825032070
           H          0.378627505521     1.356378529825     0.193742829871     1.007825032070
           C         -0.333372494479     0.711378529825    -0.276257170129    12.000000000000
           H         -0.299372494479    -1.351621470175     0.320742829871     1.007825032070
           H          0.139627505521    -1.088621470175    -1.349257170129     1.007825032070
           C          0.238627505521    -0.716621470175    -0.351257170129    12.000000000000
           H          2.123627505521    -1.687621470175    -0.009257170129     1.007825032070
           H          1.826627505521    -0.323621470175     1.040742829871     1.007825032070
           H          2.265627505521    -0.060621470175    -0.629257170129     1.007825032070
           C          1.726627505521    -0.695621470175     0.042742829871    12.000000000000

  Running in c1 symmetry.

  Rotational constants: A =      0.63088  B =      0.12931  C =      0.12653 [cm^-1]
  Rotational constants: A =  18913.18639  B =   3876.49378  C =   3793.27104 [MHz]
  Nuclear repulsion =  132.349595843236017

  Charge       = 0
  Multiplicity = 1
  Electrons    = 34
  Nalpha       = 17
  Nbeta        = 17

  ==> Algorithm <==

  SCF Algorithm Type is DF.
  DIIS enabled.
  MOM disabled.
  Fractional occupation disabled.
  Guess Type is SAD.
  Energy threshold   = 1.00e-10
  Density threshold  = 1.00e-10
  Integral threshold = 0.00e+00

  ==> Primary Basis <==

  Basis Set: AUG-CC-PVTZ
    Blend: AUG-CC-PVTZ
    Number of shells: 146
    Number of basis function: 414
    Number of Cartesian functions: 470
    Spherical Harmonics?: true
    Max angular momentum: 3

   => Loading Basis Set <=

    Name: (AUG-CC-PVTZ AUX)
    Role: JKFIT
    Keyword: DF_BASIS_SCF
    atoms 1-3, 5-6, 8-9, 11-13 entry H          line    69 file /cbio/jclab/home/chayas/anaconda/envs/py35/share/psi4/basis/aug-cc-pvtz-jkfit.gbs 
    atoms 4, 7, 10, 14         entry C          line   161 file /cbio/jclab/home/chayas/anaconda/envs/py35/share/psi4/basis/aug-cc-pvtz-jkfit.gbs 

  ==> Pre-Iterations <==

   -------------------------------------------------------
    Irrep   Nso     Nmo     Nalpha   Nbeta   Ndocc  Nsocc
   -------------------------------------------------------
     A        414     414       0       0       0       0
   -------------------------------------------------------
    Total     414     414      17      17      17       0
   -------------------------------------------------------

  ==> Integral Setup <==

  ==> DFJK: Density-Fitted J/K Matrices <==

    J tasked:                  Yes
    K tasked:                  Yes
    wK tasked:                  No
    OpenMP threads:              1
    Integrals threads:           1
    Memory (MB):               715
    Algorithm:                Core
    Integral Cache:           NONE
    Schwarz Cutoff:          1E-12
    Fitting Condition:       1E-12

   => Auxiliary Basis Set <=

  Basis Set: (AUG-CC-PVTZ AUX)
    Blend: AUG-CC-PVTZ-JKFIT
    Number of shells: 260
    Number of basis function: 876
    Number of Cartesian functions: 1074
    Spherical Harmonics?: true
    Max angular momentum: 4

  Minimum eigenvalue in the overlap matrix is 7.7914987926E-06.
  Using Symmetric Orthogonalization.

  SCF Guess: Superposition of Atomic Densities via on-the-fly atomic UHF.

  ==> Iterations <==

                           Total Energy        Delta E     RMS |[F,P]|

   @DF-RHF iter   0:  -159.10544544456448   -1.59105e+02   9.66510e-03 
   @DF-RHF iter   1:  -157.25812776655147    1.84732e+00   7.92841e-04 
   @DF-RHF iter   2:  -157.33824580745730   -8.01180e-02   2.22858e-04 DIIS
   @DF-RHF iter   3:  -157.34629910096416   -8.05329e-03   7.72412e-05 DIIS
   @DF-RHF iter   4:  -157.34705854603760   -7.59445e-04   1.94847e-05 DIIS
   @DF-RHF iter   5:  -157.34712279239051   -6.42464e-05   3.36889e-06 DIIS
   @DF-RHF iter   6:  -157.34712542722988   -2.63484e-06   6.09355e-07 DIIS
   @DF-RHF iter   7:  -157.34712548640908   -5.91792e-08   1.69895e-07 DIIS
   @DF-RHF iter   8:  -157.34712549027739   -3.86831e-09   3.09986e-08 DIIS
   @DF-RHF iter   9:  -157.34712549046358   -1.86191e-10   7.23323e-09 DIIS
   @DF-RHF iter  10:  -157.34712549047643   -1.28466e-11   1.56742e-09 DIIS
   @DF-RHF iter  11:  -157.34712549047612    3.12639e-13   2.97368e-10 DIIS
   @DF-RHF iter  12:  -157.34712549047558    5.40012e-13   8.09462e-11 DIIS

  ==> Post-Iterations <==

    Orbital Energies (a.u.)
    -----------------------

    Doubly Occupied:                                                      

       1A    -11.205386     2A    -11.204790     3A    -11.199751  
       4A    -11.199658     5A     -1.071225     6A     -0.980407  
       7A     -0.863999     8A     -0.793863     9A     -0.640964  
      10A     -0.598961    11A     -0.584950    12A     -0.556748  
      13A     -0.512155    14A     -0.511720    15A     -0.470193  
      16A     -0.465392    17A     -0.441936  

    Virtual:                                                              

      18A      0.032151    19A      0.037618    20A      0.039681  
      21A      0.039803    22A      0.056906    23A      0.060231  
      24A      0.061198    25A      0.063309    26A      0.064952  
      27A      0.084076    28A      0.119359    29A      0.120639  
      30A      0.120696    31A      0.127811    32A      0.129086  
      33A      0.134474    34A      0.141322    35A      0.143166  
      36A      0.146709    37A      0.149680    38A      0.157968  
      39A      0.168276    40A      0.171457    41A      0.204116  
      42A      0.204747    43A      0.213239    44A      0.228990  
      45A      0.236551    46A      0.243090    47A      0.268927  
      48A      0.282950    49A      0.283319    50A      0.295874  
      51A      0.301290    52A      0.303815    53A      0.308795  
      54A      0.325439    55A      0.331569    56A      0.332199  
      57A      0.346994    58A      0.357116    59A      0.357709  
      60A      0.359796    61A      0.360264    62A      0.377056  
      63A      0.378281    64A      0.378837    65A      0.387905  
      66A      0.391642    67A      0.397443    68A      0.402568  
      69A      0.415007    70A      0.421838    71A      0.428329  
      72A      0.431475    73A      0.445602    74A      0.450991  
      75A      0.451445    76A      0.457397    77A      0.457782  
      78A      0.468537    79A      0.477095    80A      0.480630  
      81A      0.480906    82A      0.497571    83A      0.505315  
      84A      0.507964    85A      0.514498    86A      0.529053  
      87A      0.532495    88A      0.542495    89A      0.542796  
      90A      0.552802    91A      0.557440    92A      0.561820  
      93A      0.573015    94A      0.579930    95A      0.587257  
      96A      0.591523    97A      0.598889    98A      0.603019  
      99A      0.609194   100A      0.631480   101A      0.632922  
     102A      0.651224   103A      0.659796   104A      0.682499  
     105A      0.688954   106A      0.693787   107A      0.759961  
     108A      0.783711   109A      0.811420   110A      0.820643  
     111A      0.821222   112A      0.829378   113A      0.834794  
     114A      0.846689   115A      0.848031   116A      0.862437  
     117A      0.864289   118A      0.870659   119A      0.880392  
     120A      0.881388   121A      0.900394   122A      0.903813  
     123A      0.904448   124A      0.917449   125A      0.931019  
     126A      0.936040   127A      0.938207   128A      0.954982  
     129A      0.968848   130A      0.972622   131A      0.973087  
     132A      0.976032   133A      0.978833   134A      0.985893  
     135A      0.994815   136A      1.010830   137A      1.024444  
     138A      1.033034   139A      1.035150   140A      1.054984  
     141A      1.058713   142A      1.079497   143A      1.089361  
     144A      1.096294   145A      1.112153   146A      1.113912  
     147A      1.127372   148A      1.147065   149A      1.153832  
     150A      1.163432   151A      1.165171   152A      1.168620  
     153A      1.168732   154A      1.190310   155A      1.202546  
     156A      1.218112   157A      1.219917   158A      1.237302  
     159A      1.262764   160A      1.265544   161A      1.268039  
     162A      1.277788   163A      1.281769   164A      1.287342  
     165A      1.301366   166A      1.323936   167A      1.329798  
     168A      1.349576   169A      1.351904   170A      1.362856  
     171A      1.390004   172A      1.396450   173A      1.423671  
     174A      1.427656   175A      1.445268   176A      1.454297  
     177A      1.463606   178A      1.475846   179A      1.492527  
     180A      1.513181   181A      1.516760   182A      1.536209  
     183A      1.539513   184A      1.541024   185A      1.568267  
     186A      1.598694   187A      1.610701   188A      1.615434  
     189A      1.617001   190A      1.660089   191A      1.664692  
     192A      1.671317   193A      1.676071   194A      1.688028  
     195A      1.696714   196A      1.701831   197A      1.709448  
     198A      1.712361   199A      1.717174   200A      1.737885  
     201A      1.749418   202A      1.754870   203A      1.764429  
     204A      1.768196   205A      1.780748   206A      1.812978  
     207A      1.817024   208A      1.828521   209A      1.850470  
     210A      1.850834   211A      1.872189   212A      1.882082  
     213A      1.896620   214A      1.913670   215A      1.915865  
     216A      1.948605   217A      1.961866   218A      1.969880  
     219A      1.983406   220A      1.987143   221A      1.993879  
     222A      2.016198   223A      2.035605   224A      2.056721  
     225A      2.059555   226A      2.076289   227A      2.077731  
     228A      2.089109   229A      2.103505   230A      2.132614  
     231A      2.141673   232A      2.164191   233A      2.211869  
     234A      2.245459   235A      2.251129   236A      2.253689  
     237A      2.256667   238A      2.270952   239A      2.297359  
     240A      2.310232   241A      2.317621   242A      2.336556  
     243A      2.360654   244A      2.368904   245A      2.385209  
     246A      2.419993   247A      2.445424   248A      2.462236  
     249A      2.470685   250A      2.490387   251A      2.542647  
     252A      2.566530   253A      2.577003   254A      2.581051  
     255A      2.593806   256A      2.671966   257A      2.855413  
     258A      2.858568   259A      2.974812   260A      3.007244  
     261A      3.220484   262A      3.262283   263A      3.284890  
     264A      3.305837   265A      3.338379   266A      3.438191  
     267A      3.449549   268A      3.474579   269A      3.478122  
     270A      3.521327   271A      3.553732   272A      3.554919  
     273A      3.575729   274A      3.582838   275A      3.608303  
     276A      3.626892   277A      3.637250   278A      3.655185  
     279A      3.660427   280A      3.696292   281A      3.703868  
     282A      3.709120   283A      3.727265   284A      3.749306  
     285A      3.759383   286A      3.777996   287A      3.784576  
     288A      3.794303   289A      3.827313   290A      3.830913  
     291A      3.849013   292A      3.849611   293A      3.869805  
     294A      3.892878   295A      3.910217   296A      3.942471  
     297A      3.964206   298A      3.965572   299A      3.975155  
     300A      3.995674   301A      4.011330   302A      4.012190  
     303A      4.027915   304A      4.060424   305A      4.060752  
     306A      4.086597   307A      4.094937   308A      4.098974  
     309A      4.099447   310A      4.151913   311A      4.172176  
     312A      4.192296   313A      4.212117   314A      4.240951  
     315A      4.271053   316A      4.295329   317A      4.300497  
     318A      4.319827   319A      4.328038   320A      4.333615  
     321A      4.347726   322A      4.386267   323A      4.404684  
     324A      4.406003   325A      4.436365   326A      4.478654  
     327A      4.508807   328A      4.547227   329A      4.560984  
     330A      4.619766   331A      4.642228   332A      4.684504  
     333A      4.685618   334A      4.697446   335A      4.698632  
     336A      4.723101   337A      4.740854   338A      4.770754  
     339A      4.774452   340A      4.825699   341A      4.837238  
     342A      4.851362   343A      4.878286   344A      4.890047  
     345A      4.893580   346A      4.921639   347A      4.942088  
     348A      4.964070   349A      4.976731   350A      5.013739  
     351A      5.029557   352A      5.083903   353A      5.087544  
     354A      5.101360   355A      5.123435   356A      5.172763  
     357A      5.173767   358A      5.198942   359A      5.210248  
     360A      5.224952   361A      5.257838   362A      5.269501  
     363A      5.300863   364A      5.331002   365A      5.352209  
     366A      5.366972   367A      5.375307   368A      5.381594  
     369A      5.401695   370A      5.459572   371A      5.495313  
     372A      5.507684   373A      5.522815   374A      5.546121  
     375A      5.579149   376A      5.586709   377A      5.619178  
     378A      5.636326   379A      5.652824   380A      5.673870  
     381A      5.700398   382A      5.774622   383A      5.792711  
     384A      5.836839   385A      5.862364   386A      5.864590  
     387A      5.927954   388A      5.930719   389A      5.980301  
     390A      6.020934   391A      6.047464   392A      6.132856  
     393A      6.167192   394A      6.218985   395A      6.256486  
     396A      6.272373   397A      6.292770   398A      6.303021  
     399A      6.332939   400A      6.372203   401A      6.412300  
     402A      6.488802   403A      6.550783   404A      6.626039  
     405A      6.761030   406A      6.777380   407A      6.847983  
     408A      6.856375   409A      6.903354   410A      6.998016  
     411A     18.040678   412A     18.456029   413A     18.783893  
     414A     19.971103  

    Final Occupation by Irrep:
              A 
    DOCC [    17 ]

  Energy converged.

  @DF-RHF Final Energy:  -157.34712549047558

   => Energetics <=

    Nuclear Repulsion Energy =            132.3495958432360169
    One-Electron Energy =                -472.7892450559682516
    Two-Electron Energy =                 183.0925237222566295
    DFT Exchange-Correlation Energy =       0.0000000000000000
    Empirical Dispersion Energy =           0.0000000000000000
    PCM Polarization Energy =               0.0000000000000000
    EFP Energy =                            0.0000000000000000
    Total Energy =                       -157.3471254904755767



Properties will be evaluated at   0.000000,   0.000000,   0.000000 Bohr

Properties computed using the SCF density matrix

  Nuclear Dipole Moment: (a.u.)
     X:     0.0724      Y:     0.0054      Z:     0.4691

  Electronic Dipole Moment: (a.u.)
     X:    -0.0773      Y:    -0.0064      Z:    -0.5016

  Dipole Moment: (a.u.)
     X:    -0.0049      Y:    -0.0010      Z:    -0.0324     Total:     0.0328

  Dipole Moment: (Debye)
     X:    -0.0124      Y:    -0.0024      Z:    -0.0824     Total:     0.0834


*** tstop() called on gpu-2-12.local at Wed Jun 14 14:25:34 2017
Module time:
	user time   =      83.95 seconds =       1.40 minutes
	system time =       0.51 seconds =       0.01 minutes
	total time  =         85 seconds =       1.42 minutes
Total time:
	user time   =      83.96 seconds =       1.40 minutes
	system time =       0.51 seconds =       0.01 minutes
	total time  =         85 seconds =       1.42 minutes

  //>>>>>>>>>>>>>>>>>>>>>>>>>>>>>>>>>>>//
  //               DFMP2               //
  //<<<<<<<<<<<<<<<<<<<<<<<<<<<<<<<<<<<//

   => Loading Basis Set <=

    Name: (AUG-CC-PVTZ AUX)
    Role: RIFIT
    Keyword: DF_BASIS_MP2
    atoms 1-3, 5-6, 8-9, 11-13 entry H          line    29 file /cbio/jclab/home/chayas/anaconda/envs/py35/share/psi4/basis/aug-cc-pvtz-ri.gbs 
    atoms 4, 7, 10, 14         entry C          line   147 file /cbio/jclab/home/chayas/anaconda/envs/py35/share/psi4/basis/aug-cc-pvtz-ri.gbs 

	 --------------------------------------------------------
	                          DF-MP2                         
	      2nd-Order Density-Fitted Moller-Plesset Theory     
	              RMP2 Wavefunction,   1 Threads             
	                                                         
	        Rob Parrish, Justin Turney, Andy Simmonett,      
	           Ed Hohenstein, and C. David Sherrill          
	 --------------------------------------------------------

   => Auxiliary Basis Set <=

  Basis Set: (AUG-CC-PVTZ AUX)
    Blend: AUG-CC-PVTZ-RI
    Number of shells: 252
    Number of basis function: 884
    Number of Cartesian functions: 1094
    Spherical Harmonics?: true
    Max angular momentum: 4

	 --------------------------------------------------------
	                 NBF =   414, NAUX =   884
	 --------------------------------------------------------
	   CLASS    FOCC     OCC    AOCC    AVIR     VIR    FVIR
	   PAIRS       0      17      17     397     397       0
	 --------------------------------------------------------


         ------------------------------------------------------------
                                     CPHF                           
                                  Rob Parrish                       
         ------------------------------------------------------------

  ==> Geometry <==

    Molecular point group: c1
    Full point group: C1

    Geometry (in Angstrom), charge = 0, multiplicity = 1:

       Center              X                  Y                   Z               Mass       
    ------------   -----------------  -----------------  -----------------  -----------------
           H         -1.435372494479     0.345378529825     1.531742829871     1.007825032070
           H         -2.035372494479     1.693378529825     0.594742829871     1.007825032070
           H         -2.349372494479     0.056378529825     0.071742829871     1.007825032070
           C         -1.638372494479     0.700378529825     0.542742829871    12.000000000000
           H         -0.537372494479     1.066378529825    -1.265257170129     1.007825032070
           H          0.378627505521     1.356378529825     0.193742829871     1.007825032070
           C         -0.333372494479     0.711378529825    -0.276257170129    12.000000000000
           H         -0.299372494479    -1.351621470175     0.320742829871     1.007825032070
           H          0.139627505521    -1.088621470175    -1.349257170129     1.007825032070
           C          0.238627505521    -0.716621470175    -0.351257170129    12.000000000000
           H          2.123627505521    -1.687621470175    -0.009257170129     1.007825032070
           H          1.826627505521    -0.323621470175     1.040742829871     1.007825032070
           H          2.265627505521    -0.060621470175    -0.629257170129     1.007825032070
           C          1.726627505521    -0.695621470175     0.042742829871    12.000000000000

  Nuclear repulsion =  132.349595843236017
  Reference energy  = -157.347125490475577

  ==> Basis Set <==

  Basis Set: AUG-CC-PVTZ
    Blend: AUG-CC-PVTZ
    Number of shells: 146
    Number of basis function: 414
    Number of Cartesian functions: 470
    Spherical Harmonics?: true
    Max angular momentum: 3

  ==> CGRSolver (by Rob Parrish) <==

   Number of roots    =         1
   Preconditioning    =    JACOBI
   Convergence cutoff =     1E-06
   Maximum iterations =       100

  ==> CPHFRHamiltonian (by Rob Parrish) <== 

  ==> DFJK: Density-Fitted J/K Matrices <==

    J tasked:                  Yes
    K tasked:                  Yes
    wK tasked:                  No
    OpenMP threads:              1
    Integrals threads:           1
    Memory (MB):               715
    Algorithm:                Core
    Integral Cache:           NONE
    Schwarz Cutoff:          1E-12
    Fitting Condition:       1E-12

   => Auxiliary Basis Set <=

  Basis Set: (AUG-CC-PVTZ AUX)
    Blend: AUG-CC-PVTZ-JKFIT
    Number of shells: 260
    Number of basis function: 876
    Number of Cartesian functions: 1074
    Spherical Harmonics?: true
    Max angular momentum: 4

  ==> CPHF Iterations <==

  => Iterations <=

             Iter  Converged  Remaining    Residual
  CGR           1          0          1   8.257E-02
  CGR           2          0          1   1.335E-02
  CGR           3          0          1   3.387E-03
  CGR           4          0          1   8.376E-04
  CGR           5          0          1   1.509E-04
  CGR           6          0          1   3.316E-05
  CGR           7          0          1   6.960E-06
  CGR           8          0          1   1.451E-06
  CGR           9          1          0   2.241E-07

    CGRSolver converged.

  ==> DFCorrGrad: Density-Fitted Correlated Gradients <==

    OpenMP threads:              1
    Integrals threads:           1
    Memory (MB):               715
    Schwarz Cutoff:          0E+00
    Fitting Condition:       1E-12

   => Auxiliary Basis Set <=

  Basis Set: (AUG-CC-PVTZ AUX)
    Blend: AUG-CC-PVTZ-JKFIT
    Number of shells: 260
    Number of basis function: 876
    Number of Cartesian functions: 1074
    Spherical Harmonics?: true
    Max angular momentum: 4

	-----------------------------------------------------------
	 ==================> DF-MP2 Energies <==================== 
	-----------------------------------------------------------
	 Reference Energy          =    -157.3471254904755767 [Eh]
	 Singles Energy            =      -0.0000000000000001 [Eh]
	 Same-Spin Energy          =      -0.1655267122842836 [Eh]
	 Opposite-Spin Energy      =      -0.6396305699602690 [Eh]
	 Correlation Energy        =      -0.8051572822445527 [Eh]
	 Total Energy              =    -158.1522827727201275 [Eh]
	-----------------------------------------------------------
	 ================> DF-SCS-MP2 Energies <================== 
	-----------------------------------------------------------
	 SCS Same-Spin Scale       =       0.3333333333333333 [-]
	 SCS Opposite-Spin Scale   =       1.2000000000000000 [-]
	 SCS Same-Spin Energy      =      -0.0551755707614279 [Eh]
	 SCS Opposite-Spin Energy  =      -0.7675566839523228 [Eh]
	 SCS Correlation Energy    =      -0.8227322547137508 [Eh]
	 SCS Total Energy          =    -158.1698577451893186 [Eh]
	-----------------------------------------------------------


  -Total Gradient:
     Atom            X                  Y                   Z
    ------   -----------------  -----------------  -----------------
       1       -0.000597377188     0.003843025963    -0.011147784237
       2        0.007907567717    -0.009548770200    -0.002979713426
       3        0.009671825135     0.007454087547     0.004036191230
       4       -0.021489544296    -0.008644121726     0.015146245170
       5        0.000541658718    -0.007505002567     0.010107672660
       6       -0.007849031950    -0.009342494057    -0.004020698533
       7        0.020214321387     0.024991258230    -0.012392368682
       8        0.006307644538     0.009198817773    -0.006206800872
       9        0.002501696701     0.007851493388     0.010157534620
      10       -0.022366792169    -0.025278809137    -0.006026417975
      11       -0.008706698997     0.010160034930    -0.000638436520
      12       -0.002693762335    -0.004123289196    -0.011087320833
      13       -0.007450886663    -0.006738733234     0.006232523107
      14        0.024009379408     0.007682502286     0.008819374291


*** tstop() called on gpu-2-12.local at Wed Jun 14 14:31:36 2017
Module time:
	user time   =     444.24 seconds =       7.40 minutes
	system time =       3.16 seconds =       0.05 minutes
	total time  =        447 seconds =       7.45 minutes
Total time:
	user time   =     444.25 seconds =       7.40 minutes
	system time =       3.16 seconds =       0.05 minutes
	total time  =        447 seconds =       7.45 minutes

			-----------------------------------------
			 OPTKING 2.0: for geometry optimizations 
			  - R.A. King,  Bethel University        
			-----------------------------------------

	Internal coordinates to be generated automatically.
	Detected frag 1 with atoms:  1 2 3 4 5 6 7 8 9 10 11 12 13 14
	---Fragment 1 Bond Connectivity---
	 1 : 4
	 2 : 4
	 3 : 4
	 4 : 1 2 3 7
	 5 : 7
	 6 : 7
	 7 : 4 5 6 10
	 8 : 10
	 9 : 10
	 10 : 7 8 9 14
	 11 : 14
	 12 : 14
	 13 : 14
	 14 : 10 11 12 13

	Assuming in current code that numbering for constraints corresponds to unified fragment.
	Fixed dihedral atom list: 
	    14    10     7     4
	---Fragment 1 Geometry and Gradient---
	 H          -2.7124609132        0.6526708335        2.8945744545
	 H          -3.8462965930        3.2000216607        1.1239010680
	 H          -4.4396705987        0.1065399811        0.1355743005
	 C          -3.0960753182        1.3235236107        1.0256353090
	 H          -1.0154868459        2.0151633754       -2.3909895392
	 H           0.7155022918        2.5631839539        0.3661208887
	 C          -0.6299827148        1.3443105982       -0.5220503938
	 H          -0.5657320263       -2.5541944140        0.6061161075
	 H           0.2638577461       -2.0571964410       -2.5497265344
	 C           0.4509406332       -1.3542183196       -0.6637798538
	 H           4.0130743937       -3.1891423946       -0.0174935163
	 H           3.4518257322       -0.6115559494        1.9667189232
	 H           4.2814155046       -0.1145579764       -1.1891237187
	 C           3.2628531189       -1.3145340708        0.0807722426
	            -0.0005973772        0.0038430260       -0.0111477842
	             0.0079075677       -0.0095487702       -0.0029797134
	             0.0096718251        0.0074540875        0.0040361912
	            -0.0214895443       -0.0086441217        0.0151462452
	             0.0005416587       -0.0075050026        0.0101076727
	            -0.0078490319       -0.0093424941       -0.0040206985
	             0.0202143214        0.0249912582       -0.0123923687
	             0.0063076445        0.0091988178       -0.0062068009
	             0.0025016967        0.0078514934        0.0101575346
	            -0.0223667922       -0.0252788091       -0.0060264180
	            -0.0087066990        0.0101600349       -0.0006384365
	            -0.0026937623       -0.0041232892       -0.0110873208
	            -0.0074508867       -0.0067387332        0.0062325231
	             0.0240093794        0.0076825023        0.0088193743

	Previous optimization step data not found.  Starting new optimization.

	---Fragment 1 Intrafragment Coordinates---
	 - Coordinate -           - BOHR/RAD -       - ANG/DEG -
	 R(1,4)           =         2.022409	       1.070213
	 R(2,4)           =         2.023298	       1.070683
	 R(3,4)           =         2.019531	       1.068690
	 R(4,7)           =         2.911593	       1.540749
	 R(5,7)           =         2.022768	       1.070403
	 R(6,7)           =         2.021096	       1.069518
	 R(7,10)          =         2.910419	       1.540128
	 R(8,10)          =         2.021436	       1.069698
	 R(9,10)          =         2.021379	       1.069668
	 R(10,14)         =         2.909087	       1.539422
	 R(11,14)         =         2.021545	       1.069756
	 R(12,14)         =         2.021555	       1.069761
	 R(13,14)         =         2.022387	       1.070201
	 B(1,4,2)         =         1.910379	     109.456647
	 B(1,4,3)         =         1.910902	     109.486642
	 B(1,4,7)         =         1.910207	     109.446827
	 B(2,4,3)         =         1.910918	     109.487562
	 B(2,4,7)         =         1.910547	     109.466265
	 B(3,4,7)         =         1.910845	     109.483368
	 B(4,7,5)         =         1.909306	     109.395161
	 B(4,7,6)         =         1.911946	     109.546425
	 B(4,7,10)        =         1.911167	     109.501795
	 B(5,7,6)         =         1.910168	     109.444573
	 B(5,7,10)        =         1.910591	     109.468790
	 B(6,7,10)        =         1.910621	     109.470528
	 B(7,10,8)        =         1.910303	     109.452301
	 B(7,10,9)        =         1.910824	     109.482155
	 B(7,10,14)       =         1.911213	     109.504437
	 B(8,10,9)        =         1.910417	     109.458846
	 B(8,10,14)       =         1.910766	     109.478806
	 B(9,10,14)       =         1.910276	     109.450772
	 B(10,14,11)      =         1.910943	     109.488965
	 B(10,14,12)      =         1.911204	     109.503926
	 B(10,14,13)      =         1.911557	     109.524173
	 B(11,14,12)      =         1.910410	     109.458432
	 B(11,14,13)      =         1.910054	     109.438058
	 B(12,14,13)      =         1.909629	     109.413709
	 D(1,4,7,5)       =         3.141414	     179.989786
	 D(1,4,7,6)       =        -1.047956	     -60.043437
	 D(1,4,7,10)      =         1.047557	      60.020621
	 D(2,4,7,5)       =        -1.048001	     -60.046019
	 D(2,4,7,6)       =         1.045815	      59.920759
	 D(2,4,7,10)      =         3.141328	     179.984816
	 D(3,4,7,5)       =         1.046821	      59.978402
	 D(3,4,7,6)       =         3.140636	     179.945179
	 D(3,4,7,10)      =        -1.047036	     -59.990763
	 D(4,7,10,8)      =        -0.174431	      -9.994176
	 D(4,7,10,9)      =         1.919614	     109.985778
	 D(4,7,10,14)     =        -2.269141	    -130.012218
	 D(5,7,10,8)      =        -2.267501	    -129.918254
	 D(5,7,10,9)      =        -0.173456	      -9.938299
	 D(5,7,10,14)     =         1.920974	     110.063704
	 D(6,7,10,8)      =         1.921892	     110.116291
	 D(6,7,10,9)      =        -2.267248	    -129.903754
	 D(6,7,10,14)     =        -0.172818	      -9.901751
	 D(7,10,14,11)    =         3.141408	     179.989448
	 D(7,10,14,12)    =         1.046747	      59.974196
	 D(7,10,14,13)    =        -1.047335	     -60.007849
	 D(8,10,14,11)    =         1.046982	      59.987626
	 D(8,10,14,12)    =        -1.047680	     -60.027626
	 D(8,10,14,13)    =         3.141424	     179.990329
	 D(9,10,14,11)    =        -1.047012	     -59.989345
	 D(9,10,14,12)    =         3.141512	     179.995403
	 D(9,10,14,13)    =         1.047431	      60.013359

	Current energy   :      -158.1522827727

	Generating empirical Hessian (Schlegel '84) for each fragment.
	Adding user-defined constraint: Fragment 1; Coordinate 49:
		Value =    -2.269141; Fixed value    =    -2.268928
		Force =     0.000107; Force constant =     0.500000
	Removing off-diagonal coupling between coordinate 49 and others.
	Taking RFO optimization step.
	Going to follow RFO solution 1.
	Using RFO vector 1.

	Determining step-restricting scale parameter for RS-RFO.
	Maximum step size allowed    0.10000

	 Iter      |step|        alpha        rfo_root  
	------------------------------------------------
	    0     0.20432       1.00000           1
	    1     0.15504       6.32929           1
	    2     0.12275      17.26655           1
	    3     0.10592      29.62133           1
	    4     0.10056      35.38202           1
	    5     0.10001      36.04535           1
	------------------------------------------------
	Norm of target step-size    0.10001
	Projected energy change by RFO approximation:        -0.0045197714

	Back-transformation to cartesian coordinates...
	Successfully converged to displaced geometry.

	--- Internal Coordinate Step in ANG or DEG, aJ/ANG or AJ/DEG ---
	 ---------------------------------------------------------------------------
	   Coordinate                Previous        Force       Change         New 
	   ----------                --------       ------       ------       ------
	    1 R(1,4)          =      1.070213     0.096310     0.011774     1.081987
	    2 R(2,4)          =      1.070683     0.098311     0.012032     1.082715
	    3 R(3,4)          =      1.068690     0.104676     0.012750     1.081440
	    4 R(4,7)          =      1.540749    -0.053997    -0.007920     1.532828
	    5 R(5,7)          =      1.070403     0.098298     0.012023     1.082425
	    6 R(6,7)          =      1.069518     0.104025     0.012696     1.082214
	    7 R(7,10)         =      1.540128     0.016669     0.002442     1.542570
	    8 R(8,10)         =      1.069698     0.103250     0.012607     1.082304
	    9 R(9,10)         =      1.069668     0.102482     0.012512     1.082180
	   10 R(10,14)        =      1.539422    -0.048874    -0.007150     1.532273
	   11 R(11,14)        =      1.069756     0.103987     0.012699     1.082454
	   12 R(12,14)        =      1.069761     0.099105     0.012103     1.081863
	   13 R(13,14)        =      1.070201     0.096101     0.011748     1.081949
	   14 B(1,4,2)        =    109.456647    -0.000233    -0.545173   108.911474
	   15 B(1,4,3)        =    109.486642    -0.000145    -0.403349   109.083293
	   16 B(1,4,7)        =    109.446827     0.000065     0.143269   109.590095
	   17 B(2,4,3)        =    109.487562    -0.000247    -0.567551   108.920011
	   18 B(2,4,7)        =    109.466265     0.000452     1.115671   110.581936
	   19 B(3,4,7)        =    109.483368     0.000108     0.243024   109.726392
	   20 B(4,7,5)        =    109.395161    -0.000217    -0.416060   108.979101
	   21 B(4,7,6)        =    109.546425    -0.000192    -0.408378   109.138047
	   22 B(4,7,10)       =    109.501795     0.000679     1.472618   110.974413
	   23 B(5,7,6)        =    109.444573    -0.000018    -0.356379   109.088194
	   24 B(5,7,10)       =    109.468790    -0.000092    -0.048415   109.420375
	   25 B(6,7,10)       =    109.470528    -0.000160    -0.257350   109.213177
	   26 B(7,10,8)       =    109.452301    -0.000162    -0.262652   109.189649
	   27 B(7,10,9)       =    109.482155    -0.000093    -0.051692   109.430463
	   28 B(7,10,14)      =    109.504437     0.000681     1.477381   110.981818
	   29 B(8,10,9)       =    109.458846    -0.000019    -0.360712   109.098134
	   30 B(8,10,14)      =    109.478806    -0.000186    -0.388419   109.090387
	   31 B(9,10,14)      =    109.450772    -0.000221    -0.427856   109.022916
	   32 B(10,14,11)     =    109.488965     0.000452     1.116457   110.605421
	   33 B(10,14,12)     =    109.503926     0.000057     0.123596   109.627522
	   34 B(10,14,13)     =    109.524173     0.000103     0.231574   109.755747
	   35 B(11,14,12)     =    109.458432    -0.000231    -0.541015   108.917417
	   36 B(11,14,13)     =    109.438058    -0.000244    -0.559768   108.878291
	   37 B(12,14,13)     =    109.413709    -0.000138    -0.386800   109.026909
	   38 D(1,4,7,5)      =    179.989786     0.000027     0.396704   180.386490
	   39 D(1,4,7,6)      =    -60.043437    -0.000036    -0.531190   -60.574627
	   40 D(1,4,7,10)     =     60.020621    -0.000012    -0.191718    59.828903
	   41 D(2,4,7,5)      =    -60.046019     0.000034     0.506511   -59.539508
	   42 D(2,4,7,6)      =     59.920759    -0.000029    -0.421383    59.499375
	   43 D(2,4,7,10)     =    179.984816    -0.000005    -0.081912   179.902905
	   44 D(3,4,7,5)      =     59.978402     0.000043     0.654106    60.632508
	   45 D(3,4,7,6)      =    179.945179    -0.000019    -0.273788   179.671391
	   46 D(3,4,7,10)     =    -59.990763     0.000004     0.065683   -59.925080
	   47 D(4,7,10,8)     =     -9.994176     0.000015     0.223915    -9.770262
	   48 D(4,7,10,9)     =    109.985778    -0.000026    -0.406949   109.578829
	   49 D(4,7,10,14)    =   -130.012218    -0.000006    -0.047246  -130.059464
	   50 D(5,7,10,8)     =   -129.918254    -0.000007    -0.147958  -130.066212
	   51 D(5,7,10,9)     =     -9.938299    -0.000048    -0.778822   -10.717121
	   52 D(5,7,10,14)    =    110.063704    -0.000027    -0.419119   109.644585
	   53 D(6,7,10,8)     =    110.116291     0.000034     0.472410   110.588701
	   54 D(6,7,10,9)     =   -129.903754    -0.000007    -0.158454  -130.062208
	   55 D(6,7,10,14)    =     -9.901751     0.000013     0.201249    -9.700501
	   56 D(7,10,14,11)   =    179.989448    -0.000005    -0.080612   179.908836
	   57 D(7,10,14,12)   =     59.974196    -0.000012    -0.185498    59.788697
	   58 D(7,10,14,13)   =    -60.007849     0.000004     0.070641   -59.937207
	   59 D(8,10,14,11)   =     59.987626    -0.000029    -0.426902    59.560723
	   60 D(8,10,14,12)   =    -60.027626    -0.000036    -0.531789   -60.559415
	   61 D(8,10,14,13)   =    179.990329    -0.000020    -0.275649   179.714680
	   62 D(9,10,14,11)   =    -59.989345     0.000033     0.501356   -59.487989
	   63 D(9,10,14,12)   =    179.995403     0.000027     0.396469   180.391872
	   64 D(9,10,14,13)   =     60.013359     0.000043     0.652609    60.665968
	 ---------------------------------------------------------------------------
	Successfully symmetrized geometry.
	 Forces used to impose fixed constraints are not included.
	  Forces zeroed: 49 

  ==> Convergence Check <==

  Measures of convergence in internal coordinates in au.
  Criteria marked as inactive (o), active & met (*), and active & unmet ( ).
  --------------------------------------------------------------------------------------------- ~
   Step     Total Energy     Delta E     MAX Force     RMS Force      MAX Disp      RMS Disp    ~
  --------------------------------------------------------------------------------------------- ~
    Convergence Criteria    1.00e-06 *    3.00e-04 *             o    1.20e-03 *             o  ~
  --------------------------------------------------------------------------------------------- ~
      1    -158.15228277   -1.58e+02      1.27e-02      5.53e-03 o    2.58e-02      1.25e-02 o  ~
  ---------------------------------------------------------------------------------------------

	Writing optimization data to binary file.
	Structure for next step:
	Cartesian Geometry (in Angstrom)
	    H    -1.4536426712   0.3493110478   1.5435630795
	    H    -2.0700156925   1.6981454913   0.5932636737
	    H    -2.3706308676   0.0437463837   0.0701034849
	    C    -1.6515668266   0.7010002627   0.5396527771
	    H    -0.5574841171   1.0653480592  -1.2688395019
	    H     0.3605693105   1.3703109465   0.2053274610
	    C    -0.3495804129   0.7057637406  -0.2692796567
	    H    -0.2791859680  -1.3650955101   0.3265612717
	    H     0.1576406648  -1.0876948658  -1.3590135107
	    C     0.2559005545  -0.7107454882  -0.3493762028
	    H     2.1569696041  -1.6929860224  -0.0205306862
	    H     1.8477776646  -0.3271144539   1.0473000629
	    H     2.2852357170  -0.0485102227  -0.6365231555
	    C     1.7387981177  -0.6961799512   0.0361905213
			--------------------------
			 OPTKING Finished Execution 
			--------------------------

    Structure for next step:
    Molecular point group: c1
    Full point group: C1

    Geometry (in Angstrom), charge = 0, multiplicity = 1:

    H           -1.453650508734     0.349249641801     1.543711440607
    H           -2.070023530022     1.698084085349     0.593412034749
    H           -2.370638705109     0.043684977743     0.070251846003
    C           -1.651574664197     0.700938856756     0.539801138152
    H           -0.557491954642     1.065286653225    -1.268691140853
    H            0.360561472945     1.370249540487     0.205475822049
    C           -0.349588250505     0.705702334634    -0.269131295583
    H           -0.279193805591    -1.365156916046     0.326709632734
    H            0.157632827260    -1.087756271832    -1.358865149657
    C            0.255892716970    -0.710806894182    -0.349227841698
    H            2.156961766506    -1.693047428388    -0.020382325170
    H            1.847769827022    -0.327175859933     1.047448423951
    H            2.285227879462    -0.048571628685    -0.636374794445
    C            1.738790280103    -0.696241357210     0.036338882409

gradient() will perform analytic gradient computation.

*** tstart() called on gpu-2-12.local
*** at Wed Jun 14 14:31:37 2017

    SCF Algorithm Type (re)set to DF.

*** tstart() called on gpu-2-12.local
*** at Wed Jun 14 14:31:37 2017

   => Loading Basis Set <=

    Name: AUG-CC-PVTZ
    Role: ORBITAL
    Keyword: BASIS
    atoms 1-3, 5-6, 8-9, 11-13 entry H          line    34 file /cbio/jclab/home/chayas/anaconda/envs/py35/share/psi4/basis/aug-cc-pvtz.gbs 
    atoms 4, 7, 10, 14         entry C          line   221 file /cbio/jclab/home/chayas/anaconda/envs/py35/share/psi4/basis/aug-cc-pvtz.gbs 


         ---------------------------------------------------------
                                   SCF
            by Justin Turney, Rob Parrish, and Andy Simmonett
                              RHF Reference
                        1 Threads,    953 MiB Core
         ---------------------------------------------------------

  ==> Geometry <==

    Molecular point group: c1
    Full point group: C1

    Geometry (in Angstrom), charge = 0, multiplicity = 1:

       Center              X                  Y                   Z               Mass       
    ------------   -----------------  -----------------  -----------------  -----------------
           H         -1.453650508734     0.349249641801     1.543711440607     1.007825032070
           H         -2.070023530022     1.698084085349     0.593412034749     1.007825032070
           H         -2.370638705109     0.043684977743     0.070251846003     1.007825032070
           C         -1.651574664197     0.700938856756     0.539801138152    12.000000000000
           H         -0.557491954642     1.065286653225    -1.268691140853     1.007825032070
           H          0.360561472945     1.370249540487     0.205475822049     1.007825032070
           C         -0.349588250505     0.705702334634    -0.269131295583    12.000000000000
           H         -0.279193805591    -1.365156916046     0.326709632734     1.007825032070
           H          0.157632827260    -1.087756271832    -1.358865149657     1.007825032070
           C          0.255892716970    -0.710806894182    -0.349227841698    12.000000000000
           H          2.156961766506    -1.693047428388    -0.020382325170     1.007825032070
           H          1.847769827022    -0.327175859933     1.047448423951     1.007825032070
           H          2.285227879462    -0.048571628685    -0.636374794445     1.007825032070
           C          1.738790280103    -0.696241357210     0.036338882409    12.000000000000

  Running in c1 symmetry.

  Rotational constants: A =      0.63701  B =      0.12734  C =      0.12480 [cm^-1]
  Rotational constants: A =  19097.21034  B =   3817.51068  C =   3741.48130 [MHz]
  Nuclear repulsion =  131.692764114154869

  Charge       = 0
  Multiplicity = 1
  Electrons    = 34
  Nalpha       = 17
  Nbeta        = 17

  ==> Algorithm <==

  SCF Algorithm Type is DF.
  DIIS enabled.
  MOM disabled.
  Fractional occupation disabled.
  Guess Type is READ.
  Energy threshold   = 1.00e-10
  Density threshold  = 1.00e-10
  Integral threshold = 0.00e+00

  ==> Primary Basis <==

  Basis Set: AUG-CC-PVTZ
    Blend: AUG-CC-PVTZ
    Number of shells: 146
    Number of basis function: 414
    Number of Cartesian functions: 470
    Spherical Harmonics?: true
    Max angular momentum: 3

   => Loading Basis Set <=

    Name: (AUG-CC-PVTZ AUX)
    Role: JKFIT
    Keyword: DF_BASIS_SCF
    atoms 1-3, 5-6, 8-9, 11-13 entry H          line    69 file /cbio/jclab/home/chayas/anaconda/envs/py35/share/psi4/basis/aug-cc-pvtz-jkfit.gbs 
    atoms 4, 7, 10, 14         entry C          line   161 file /cbio/jclab/home/chayas/anaconda/envs/py35/share/psi4/basis/aug-cc-pvtz-jkfit.gbs 

  Reading orbitals from file 180, no projection.

  ==> Pre-Iterations <==

   -------------------------------------------------------
    Irrep   Nso     Nmo     Nalpha   Nbeta   Ndocc  Nsocc
   -------------------------------------------------------
     A        414     414       0       0       0       0
   -------------------------------------------------------
    Total     414     414      17      17      17       0
   -------------------------------------------------------

  ==> Integral Setup <==

  ==> DFJK: Density-Fitted J/K Matrices <==

    J tasked:                  Yes
    K tasked:                  Yes
    wK tasked:                  No
    OpenMP threads:              1
    Integrals threads:           1
    Memory (MB):               715
    Algorithm:                Core
    Integral Cache:           NONE
    Schwarz Cutoff:          1E-12
    Fitting Condition:       1E-12

   => Auxiliary Basis Set <=

  Basis Set: (AUG-CC-PVTZ AUX)
    Blend: AUG-CC-PVTZ-JKFIT
    Number of shells: 260
    Number of basis function: 876
    Number of Cartesian functions: 1074
    Spherical Harmonics?: true
    Max angular momentum: 4

  Minimum eigenvalue in the overlap matrix is 8.2311121971E-06.
  Using Symmetric Orthogonalization.

  SCF Guess: Orbitals guess was supplied from a previous computation.

  ==> Iterations <==

                           Total Energy        Delta E     RMS |[F,P]|

   @DF-RHF iter   0:  -157.26701886805591   -1.57267e+02   1.30639e-04 
   @DF-RHF iter   1:  -157.34949770035837   -8.24788e-02   5.54039e-05 
   @DF-RHF iter   2:  -157.34980616943656   -3.08469e-04   2.87837e-05 DIIS
   @DF-RHF iter   3:  -157.34987388828662   -6.77189e-05   3.33403e-06 DIIS
   @DF-RHF iter   4:  -157.34987604233771   -2.15405e-06   8.68374e-07 DIIS
   @DF-RHF iter   5:  -157.34987616836122   -1.26024e-07   3.07086e-07 DIIS
   @DF-RHF iter   6:  -157.34987618293215   -1.45709e-08   5.43910e-08 DIIS
   @DF-RHF iter   7:  -157.34987618360725   -6.75101e-10   9.83841e-09 DIIS
   @DF-RHF iter   8:  -157.34987618362771   -2.04636e-11   2.40290e-09 DIIS
   @DF-RHF iter   9:  -157.34987618362970   -1.98952e-12   5.35056e-10 DIIS
   @DF-RHF iter  10:  -157.34987618362746    2.24532e-12   1.03207e-10 DIIS
   @DF-RHF iter  11:  -157.34987618362717    2.84217e-13   2.05365e-11 DIIS

  ==> Post-Iterations <==

    Orbital Energies (a.u.)
    -----------------------

    Doubly Occupied:                                                      

       1A    -11.209685     2A    -11.209111     3A    -11.204588  
       4A    -11.204555     5A     -1.069585     6A     -0.979885  
       7A     -0.860840     8A     -0.788785     9A     -0.637818  
      10A     -0.597242    11A     -0.582266    12A     -0.555702  
      13A     -0.509366    14A     -0.508527    15A     -0.466266  
      16A     -0.461788    17A     -0.448067  

    Virtual:                                                              

      18A      0.032154    19A      0.037549    20A      0.039694  
      21A      0.039805    22A      0.056800    23A      0.060169  
      24A      0.061122    25A      0.063511    26A      0.065094  
      27A      0.083803    28A      0.119123    29A      0.120593  
      30A      0.120703    31A      0.127488    32A      0.129098  
      33A      0.134485    34A      0.141471    35A      0.143100  
      36A      0.146760    37A      0.149713    38A      0.157862  
      39A      0.168273    40A      0.171664    41A      0.204081  
      42A      0.204781    43A      0.213038    44A      0.228150  
      45A      0.235167    46A      0.241408    47A      0.268650  
      48A      0.281200    49A      0.281448    50A      0.296150  
      51A      0.300376    52A      0.301632    53A      0.308096  
      54A      0.324844    55A      0.331557    56A      0.331772  
      57A      0.346493    58A      0.356367    59A      0.356930  
      60A      0.359891    61A      0.360540    62A      0.375815  
      63A      0.376541    64A      0.377201    65A      0.387767  
      66A      0.390255    67A      0.396295    68A      0.401744  
      69A      0.413028    70A      0.420636    71A      0.426242  
      72A      0.430268    73A      0.444004    74A      0.447862  
      75A      0.449891    76A      0.454790    77A      0.456039  
      78A      0.467493    79A      0.475983    80A      0.477019  
      81A      0.477349    82A      0.496958    83A      0.504489  
      84A      0.506344    85A      0.514249    86A      0.527626  
      87A      0.531655    88A      0.541321    89A      0.541359  
      90A      0.552647    91A      0.557621    92A      0.563073  
      93A      0.571393    94A      0.579644    95A      0.585943  
      96A      0.587745    97A      0.598720    98A      0.600558  
      99A      0.606593   100A      0.628040   101A      0.631215  
     102A      0.650855   103A      0.658409   104A      0.681009  
     105A      0.687444   106A      0.693090   107A      0.760424  
     108A      0.780855   109A      0.811877   110A      0.818566  
     111A      0.820475   112A      0.829528   113A      0.834406  
     114A      0.845377   115A      0.845641   116A      0.860414  
     117A      0.863092   118A      0.868186   119A      0.877905  
     120A      0.878114   121A      0.898225   122A      0.901805  
     123A      0.902646   124A      0.915847   125A      0.929335  
     126A      0.932615   127A      0.937202   128A      0.952695  
     129A      0.966466   130A      0.969111   131A      0.971864  
     132A      0.975078   133A      0.976999   134A      0.983800  
     135A      0.995478   136A      1.008919   137A      1.020210  
     138A      1.031251   139A      1.032662   140A      1.054066  
     141A      1.056266   142A      1.078231   143A      1.084371  
     144A      1.096703   145A      1.108917   146A      1.110175  
     147A      1.123853   148A      1.143791   149A      1.150201  
     150A      1.157869   151A      1.161878   152A      1.163670  
     153A      1.164961   154A      1.187032   155A      1.199740  
     156A      1.211919   157A      1.217986   158A      1.232226  
     159A      1.258075   160A      1.259211   161A      1.263763  
     162A      1.271825   163A      1.278291   164A      1.282303  
     165A      1.296633   166A      1.317530   167A      1.324119  
     168A      1.344726   169A      1.346617   170A      1.358542  
     171A      1.381179   172A      1.390500   173A      1.417927  
     174A      1.427169   175A      1.441529   176A      1.452242  
     177A      1.456260   178A      1.474794   179A      1.487045  
     180A      1.507598   181A      1.517507   182A      1.531310  
     183A      1.538012   184A      1.540698   185A      1.562626  
     186A      1.595370   187A      1.607059   188A      1.611083  
     189A      1.612558   190A      1.655164   191A      1.658345  
     192A      1.666791   193A      1.672380   194A      1.682805  
     195A      1.686945   196A      1.696879   197A      1.703538  
     198A      1.707119   199A      1.714093   200A      1.738245  
     201A      1.744409   202A      1.751260   203A      1.761796  
     204A      1.765646   205A      1.778669   206A      1.807613  
     207A      1.811819   208A      1.823779   209A      1.848674  
     210A      1.850173   211A      1.865395   212A      1.875708  
     213A      1.889751   214A      1.905096   215A      1.911474  
     216A      1.949155   217A      1.952826   218A      1.964351  
     219A      1.973671   220A      1.982787   221A      1.984479  
     222A      2.006342   223A      2.030422   224A      2.046872  
     225A      2.053898   226A      2.066394   227A      2.068818  
     228A      2.085143   229A      2.097756   230A      2.126699  
     231A      2.133898   232A      2.156601   233A      2.201205  
     234A      2.234462   235A      2.246835   236A      2.247709  
     237A      2.250849   238A      2.262605   239A      2.286998  
     240A      2.300223   241A      2.310812   242A      2.322291  
     243A      2.350221   244A      2.363991   245A      2.376887  
     246A      2.414513   247A      2.444232   248A      2.462616  
     249A      2.463578   250A      2.488971   251A      2.535501  
     252A      2.567700   253A      2.574267   254A      2.581802  
     255A      2.582672   256A      2.662678   257A      2.857554  
     258A      2.868648   259A      2.983893   260A      3.018889  
     261A      3.213783   262A      3.272757   263A      3.288076  
     264A      3.308771   265A      3.343422   266A      3.440464  
     267A      3.456288   268A      3.473339   269A      3.475152  
     270A      3.528492   271A      3.546729   272A      3.556621  
     273A      3.570143   274A      3.580195   275A      3.604297  
     276A      3.617976   277A      3.638615   278A      3.654303  
     279A      3.656327   280A      3.692901   281A      3.703069  
     282A      3.704522   283A      3.724183   284A      3.746024  
     285A      3.749834   286A      3.776387   287A      3.781255  
     288A      3.792620   289A      3.825633   290A      3.828497  
     291A      3.842041   292A      3.845836   293A      3.863273  
     294A      3.887547   295A      3.904860   296A      3.940341  
     297A      3.950977   298A      3.954001   299A      3.970524  
     300A      3.995639   301A      3.996381   302A      4.004030  
     303A      4.015716   304A      4.047434   305A      4.054819  
     306A      4.079849   307A      4.080504   308A      4.088582  
     309A      4.093746   310A      4.138846   311A      4.163720  
     312A      4.188036   313A      4.200245   314A      4.224801  
     315A      4.261432   316A      4.282434   317A      4.290279  
     318A      4.297141   319A      4.318577   320A      4.320211  
     321A      4.334146   322A      4.371419   323A      4.383948  
     324A      4.399252   325A      4.421908   326A      4.461055  
     327A      4.493164   328A      4.522166   329A      4.543103  
     330A      4.608684   331A      4.622116   332A      4.658845  
     333A      4.664903   334A      4.670852   335A      4.680567  
     336A      4.699535   337A      4.725479   338A      4.751316  
     339A      4.761777   340A      4.819751   341A      4.822293  
     342A      4.839029   343A      4.859375   344A      4.874040  
     345A      4.877027   346A      4.901437   347A      4.918513  
     348A      4.945428   349A      4.958443   350A      4.994418  
     351A      5.012690   352A      5.059521   353A      5.073429  
     354A      5.080650   355A      5.105918   356A      5.149839  
     357A      5.153029   358A      5.176639   359A      5.180301  
     360A      5.203365   361A      5.233662   362A      5.250667  
     363A      5.280708   364A      5.302421   365A      5.327862  
     366A      5.343646   367A      5.344702   368A      5.356693  
     369A      5.377192   370A      5.428103   371A      5.475875  
     372A      5.487174   373A      5.496909   374A      5.512101  
     375A      5.538051   376A      5.555990   377A      5.587816  
     378A      5.609630   379A      5.623891   380A      5.642073  
     381A      5.683850   382A      5.743730   383A      5.760310  
     384A      5.793921   385A      5.822333   386A      5.837649  
     387A      5.883843   388A      5.909537   389A      5.947678  
     390A      5.987264   391A      6.028182   392A      6.089724  
     393A      6.109212   394A      6.172765   395A      6.223338  
     396A      6.229925   397A      6.251323   398A      6.267186  
     399A      6.288501   400A      6.328143   401A      6.357503  
     402A      6.469468   403A      6.542387   404A      6.603836  
     405A      6.750818   406A      6.769619   407A      6.840590  
     408A      6.857294   409A      6.900135   410A      6.994123  
     411A     17.859633   412A     18.224991   413A     18.649676  
     414A     19.832251  

    Final Occupation by Irrep:
              A 
    DOCC [    17 ]

  Energy converged.

  @DF-RHF Final Energy:  -157.34987618362717

   => Energetics <=

    Nuclear Repulsion Energy =            131.6927641141548690
    One-Electron Energy =                -471.4971330523713959
    Two-Electron Energy =                 182.4544927545893245
    DFT Exchange-Correlation Energy =       0.0000000000000000
    Empirical Dispersion Energy =           0.0000000000000000
    PCM Polarization Energy =               0.0000000000000000
    EFP Energy =                            0.0000000000000000
    Total Energy =                       -157.3498761836271740



Properties will be evaluated at   0.000000,   0.000000,   0.000000 Bohr

Properties computed using the SCF density matrix

  Nuclear Dipole Moment: (a.u.)
     X:     0.0723      Y:     0.0045      Z:     0.4713

  Electronic Dipole Moment: (a.u.)
     X:    -0.0768      Y:    -0.0050      Z:    -0.5007

  Dipole Moment: (a.u.)
     X:    -0.0044      Y:    -0.0004      Z:    -0.0294     Total:     0.0297

  Dipole Moment: (Debye)
     X:    -0.0113      Y:    -0.0011      Z:    -0.0748     Total:     0.0756


*** tstop() called on gpu-2-12.local at Wed Jun 14 14:33:01 2017
Module time:
	user time   =      83.63 seconds =       1.39 minutes
	system time =       0.42 seconds =       0.01 minutes
	total time  =         84 seconds =       1.40 minutes
Total time:
	user time   =     527.95 seconds =       8.80 minutes
	system time =       3.68 seconds =       0.06 minutes
	total time  =        532 seconds =       8.87 minutes

  //>>>>>>>>>>>>>>>>>>>>>>>>>>>>>>>>>>>//
  //               DFMP2               //
  //<<<<<<<<<<<<<<<<<<<<<<<<<<<<<<<<<<<//

   => Loading Basis Set <=

    Name: (AUG-CC-PVTZ AUX)
    Role: RIFIT
    Keyword: DF_BASIS_MP2
    atoms 1-3, 5-6, 8-9, 11-13 entry H          line    29 file /cbio/jclab/home/chayas/anaconda/envs/py35/share/psi4/basis/aug-cc-pvtz-ri.gbs 
    atoms 4, 7, 10, 14         entry C          line   147 file /cbio/jclab/home/chayas/anaconda/envs/py35/share/psi4/basis/aug-cc-pvtz-ri.gbs 

	 --------------------------------------------------------
	                          DF-MP2                         
	      2nd-Order Density-Fitted Moller-Plesset Theory     
	              RMP2 Wavefunction,   1 Threads             
	                                                         
	        Rob Parrish, Justin Turney, Andy Simmonett,      
	           Ed Hohenstein, and C. David Sherrill          
	 --------------------------------------------------------

   => Auxiliary Basis Set <=

  Basis Set: (AUG-CC-PVTZ AUX)
    Blend: AUG-CC-PVTZ-RI
    Number of shells: 252
    Number of basis function: 884
    Number of Cartesian functions: 1094
    Spherical Harmonics?: true
    Max angular momentum: 4

	 --------------------------------------------------------
	                 NBF =   414, NAUX =   884
	 --------------------------------------------------------
	   CLASS    FOCC     OCC    AOCC    AVIR     VIR    FVIR
	   PAIRS       0      17      17     397     397       0
	 --------------------------------------------------------


         ------------------------------------------------------------
                                     CPHF                           
                                  Rob Parrish                       
         ------------------------------------------------------------

  ==> Geometry <==

    Molecular point group: c1
    Full point group: C1

    Geometry (in Angstrom), charge = 0, multiplicity = 1:

       Center              X                  Y                   Z               Mass       
    ------------   -----------------  -----------------  -----------------  -----------------
           H         -1.453650508734     0.349249641801     1.543711440607     1.007825032070
           H         -2.070023530022     1.698084085349     0.593412034749     1.007825032070
           H         -2.370638705109     0.043684977743     0.070251846003     1.007825032070
           C         -1.651574664197     0.700938856756     0.539801138152    12.000000000000
           H         -0.557491954642     1.065286653225    -1.268691140853     1.007825032070
           H          0.360561472945     1.370249540487     0.205475822049     1.007825032070
           C         -0.349588250505     0.705702334634    -0.269131295583    12.000000000000
           H         -0.279193805591    -1.365156916046     0.326709632734     1.007825032070
           H          0.157632827260    -1.087756271832    -1.358865149657     1.007825032070
           C          0.255892716970    -0.710806894182    -0.349227841698    12.000000000000
           H          2.156961766506    -1.693047428388    -0.020382325170     1.007825032070
           H          1.847769827022    -0.327175859933     1.047448423951     1.007825032070
           H          2.285227879462    -0.048571628685    -0.636374794445     1.007825032070
           C          1.738790280103    -0.696241357210     0.036338882409    12.000000000000

  Nuclear repulsion =  131.692764114154869
  Reference energy  = -157.349876183627174

  ==> Basis Set <==

  Basis Set: AUG-CC-PVTZ
    Blend: AUG-CC-PVTZ
    Number of shells: 146
    Number of basis function: 414
    Number of Cartesian functions: 470
    Spherical Harmonics?: true
    Max angular momentum: 3

  ==> CGRSolver (by Rob Parrish) <==

   Number of roots    =         1
   Preconditioning    =    JACOBI
   Convergence cutoff =     1E-06
   Maximum iterations =       100

  ==> CPHFRHamiltonian (by Rob Parrish) <== 

  ==> DFJK: Density-Fitted J/K Matrices <==

    J tasked:                  Yes
    K tasked:                  Yes
    wK tasked:                  No
    OpenMP threads:              1
    Integrals threads:           1
    Memory (MB):               715
    Algorithm:                Core
    Integral Cache:           NONE
    Schwarz Cutoff:          1E-12
    Fitting Condition:       1E-12

   => Auxiliary Basis Set <=

  Basis Set: (AUG-CC-PVTZ AUX)
    Blend: AUG-CC-PVTZ-JKFIT
    Number of shells: 260
    Number of basis function: 876
    Number of Cartesian functions: 1074
    Spherical Harmonics?: true
    Max angular momentum: 4

  ==> CPHF Iterations <==

  => Iterations <=

             Iter  Converged  Remaining    Residual
  CGR           1          0          1   8.380E-02
  CGR           2          0          1   1.349E-02
  CGR           3          0          1   3.424E-03
  CGR           4          0          1   8.421E-04
  CGR           5          0          1   1.519E-04
  CGR           6          0          1   3.305E-05
  CGR           7          0          1   6.686E-06
  CGR           8          0          1   1.383E-06
  CGR           9          1          0   2.129E-07

    CGRSolver converged.

  ==> DFCorrGrad: Density-Fitted Correlated Gradients <==

    OpenMP threads:              1
    Integrals threads:           1
    Memory (MB):               715
    Schwarz Cutoff:          0E+00
    Fitting Condition:       1E-12

   => Auxiliary Basis Set <=

  Basis Set: (AUG-CC-PVTZ AUX)
    Blend: AUG-CC-PVTZ-JKFIT
    Number of shells: 260
    Number of basis function: 876
    Number of Cartesian functions: 1074
    Spherical Harmonics?: true
    Max angular momentum: 4

	-----------------------------------------------------------
	 ==================> DF-MP2 Energies <==================== 
	-----------------------------------------------------------
	 Reference Energy          =    -157.3498761836271740 [Eh]
	 Singles Energy            =      -0.0000000000000000 [Eh]
	 Same-Spin Energy          =      -0.1653597019647570 [Eh]
	 Opposite-Spin Energy      =      -0.6399977411398482 [Eh]
	 Correlation Energy        =      -0.8053574431046051 [Eh]
	 Total Energy              =    -158.1552336267317855 [Eh]
	-----------------------------------------------------------
	 ================> DF-SCS-MP2 Energies <================== 
	-----------------------------------------------------------
	 SCS Same-Spin Scale       =       0.3333333333333333 [-]
	 SCS Opposite-Spin Scale   =       1.2000000000000000 [-]
	 SCS Same-Spin Energy      =      -0.0551199006549190 [Eh]
	 SCS Opposite-Spin Energy  =      -0.7679972893678179 [Eh]
	 SCS Correlation Energy    =      -0.8231171900227369 [Eh]
	 SCS Total Energy          =    -158.1729933736499163 [Eh]
	-----------------------------------------------------------


  -Total Gradient:
     Atom            X                  Y                   Z
    ------   -----------------  -----------------  -----------------
       1        0.000964545795     0.001412927014    -0.003781051209
       2        0.003080663571    -0.002254033702    -0.001360490645
       3        0.003733510541     0.002447142491     0.000216088062
       4       -0.011164826598    -0.004272954000     0.008254428575
       5       -0.001752748247    -0.004483274796     0.002776176171
       6       -0.002663308130    -0.004222786154     0.000080515587
       7        0.010647711454     0.014543220699    -0.006617003639
       8        0.002581874455     0.004209686579    -0.000710527807
       9        0.002469387560     0.004572958287     0.002193814574
      10       -0.011855003423    -0.014651804761    -0.003208197000
      11       -0.003386936039     0.002424087819    -0.000439632988
      12       -0.001983583922    -0.001464681799    -0.003403377426
      13       -0.003292317507    -0.002249252522     0.001201839276
      14        0.012621030489     0.003988764843     0.004797418469


*** tstop() called on gpu-2-12.local at Wed Jun 14 14:39:10 2017
Module time:
	user time   =     450.53 seconds =       7.51 minutes
	system time =       3.08 seconds =       0.05 minutes
	total time  =        453 seconds =       7.55 minutes
Total time:
	user time   =     894.85 seconds =      14.91 minutes
	system time =       6.34 seconds =       0.11 minutes
	total time  =        901 seconds =      15.02 minutes

			-----------------------------------------
			 OPTKING 2.0: for geometry optimizations 
			  - R.A. King,  Bethel University        
			-----------------------------------------

	Previous internal coordinate definitions found.
	---Fragment 1 Geometry and Gradient---
	 H          -2.7470013544        0.6599861750        2.9171918509
	 H          -3.9117775604        3.2089138719        1.1213862296
	 H          -4.4798579127        0.0825526441        0.1327567493
	 C          -3.1210238033        1.3245824752        1.0200763173
	 H          -1.0535071156        2.0131000276       -2.3974788034
	 H           0.6813624379        2.5893963652        0.3882930306
	 C          -0.6606260527        1.3335841438       -0.5085844424
	 H          -0.5275998306       -2.5797726997        0.6173917308
	 H           0.2978828731       -2.0555614531       -2.5678829844
	 C           0.4835671545       -1.3432303634       -0.6599449788
	 H           4.0760670178       -3.1993959696       -0.0385170125
	 H           3.4917789297       -0.6182727726        1.9793906596
	 H           4.3184548434       -0.0917870760       -1.2025740794
	 C           3.2858374319       -1.3157054875        0.0686705357
	             0.0009645458        0.0014129270       -0.0037810512
	             0.0030806636       -0.0022540337       -0.0013604906
	             0.0037335105        0.0024471425        0.0002160881
	            -0.0111648266       -0.0042729540        0.0082544286
	            -0.0017527482       -0.0044832748        0.0027761762
	            -0.0026633081       -0.0042227862        0.0000805156
	             0.0106477115        0.0145432207       -0.0066170036
	             0.0025818745        0.0042096866       -0.0007105278
	             0.0024693876        0.0045729583        0.0021938146
	            -0.0118550034       -0.0146518048       -0.0032081970
	            -0.0033869360        0.0024240878       -0.0004396330
	            -0.0019835839       -0.0014646818       -0.0034033774
	            -0.0032923175       -0.0022492525        0.0012018393
	             0.0126210305        0.0039887648        0.0047974185

	---Fragment 1 Intrafragment Coordinates---
	 - Coordinate -           - BOHR/RAD -       - ANG/DEG -
	 R(1,4)           =         2.044659	       1.081987
	 R(2,4)           =         2.046035	       1.082715
	 R(3,4)           =         2.043625	       1.081440
	 R(4,7)           =         2.896626	       1.532828
	 R(5,7)           =         2.045488	       1.082425
	 R(6,7)           =         2.045088	       1.082214
	 R(7,10)          =         2.915034	       1.542570
	 R(8,10)          =         2.045259	       1.082304
	 R(9,10)          =         2.045024	       1.082180
	 R(10,14)         =         2.895575	       1.532273
	 R(11,14)         =         2.045542	       1.082454
	 R(12,14)         =         2.044426	       1.081863
	 R(13,14)         =         2.044587	       1.081949
	 B(1,4,2)         =         1.900864	     108.911474
	 B(1,4,3)         =         1.903863	     109.083293
	 B(1,4,7)         =         1.912708	     109.590095
	 B(2,4,3)         =         1.901013	     108.920011
	 B(2,4,7)         =         1.930019	     110.581936
	 B(3,4,7)         =         1.915087	     109.726392
	 B(4,7,5)         =         1.902044	     108.979101
	 B(4,7,6)         =         1.904818	     109.138047
	 B(4,7,10)        =         1.936869	     110.974413
	 B(5,7,6)         =         1.903948	     109.088194
	 B(5,7,10)        =         1.909746	     109.420375
	 B(6,7,10)        =         1.906130	     109.213177
	 B(7,10,8)        =         1.905719	     109.189649
	 B(7,10,9)        =         1.909922	     109.430463
	 B(7,10,14)       =         1.936998	     110.981818
	 B(8,10,9)        =         1.904122	     109.098134
	 B(8,10,14)       =         1.903986	     109.090387
	 B(9,10,14)       =         1.902809	     109.022916
	 B(10,14,11)      =         1.930429	     110.605421
	 B(10,14,12)      =         1.913361	     109.627522
	 B(10,14,13)      =         1.915599	     109.755747
	 B(11,14,12)      =         1.900968	     108.917417
	 B(11,14,13)      =         1.900285	     108.878291
	 B(12,14,13)      =         1.902879	     109.026909
	 D(1,4,7,5)       =        -3.134847	    -179.613510
	 D(1,4,7,6)       =        -1.057227	     -60.574627
	 D(1,4,7,10)      =         1.044211	      59.828903
	 D(2,4,7,5)       =        -1.039160	     -59.539508
	 D(2,4,7,6)       =         1.038460	      59.499375
	 D(2,4,7,10)      =         3.139898	     179.902905
	 D(3,4,7,5)       =         1.058237	      60.632508
	 D(3,4,7,6)       =         3.135857	     179.671391
	 D(3,4,7,10)      =        -1.045890	     -59.925080
	 D(4,7,10,8)      =        -0.170523	      -9.770262
	 D(4,7,10,9)      =         1.912511	     109.578829
	 D(4,7,10,14)     =        -2.269966	    -130.059464
	 D(5,7,10,8)      =        -2.270084	    -130.066212
	 D(5,7,10,9)      =        -0.187049	     -10.717121
	 D(5,7,10,14)     =         1.913659	     109.644585
	 D(6,7,10,8)      =         1.930137	     110.588701
	 D(6,7,10,9)      =        -2.270014	    -130.062208
	 D(6,7,10,14)     =        -0.169306	      -9.700501
	 D(7,10,14,11)    =         3.140002	     179.908836
	 D(7,10,14,12)    =         1.043510	      59.788697
	 D(7,10,14,13)    =        -1.046102	     -59.937207
	 D(8,10,14,11)    =         1.039531	      59.560723
	 D(8,10,14,12)    =        -1.056961	     -60.559415
	 D(8,10,14,13)    =         3.136613	     179.714680
	 D(9,10,14,11)    =        -1.038261	     -59.487989
	 D(9,10,14,12)    =        -3.134753	    -179.608128
	 D(9,10,14,13)    =         1.058821	      60.665968

	Current energy   :      -158.1552336267

	Energy change for the previous step:
		Projected    :        -0.0045197714
		Actual       :        -0.0029508540

	Performing BFGS update.
	Previous computed or guess Hessian on step 1.
	Steps to be used in Hessian update: 1
	Adding user-defined constraint: Fragment 1; Coordinate 49:
		Value =    -2.269966; Fixed value    =    -2.268930
		Force =     0.000544; Force constant =     0.525000
	Removing off-diagonal coupling between coordinate 49 and others.
	Taking RFO optimization step.
	Going to follow RFO solution 1.
	Using RFO vector 1.

	Determining step-restricting scale parameter for RS-RFO.
	Maximum step size allowed    0.10000

	 Iter      |step|        alpha        rfo_root  
	------------------------------------------------
	    0     0.16892       1.00000           1
	    1     0.13385       7.45284           1
	    2     0.11081      17.69202           1
	    3     0.10164      24.52724           1
	    4     0.10005      25.95610           1
	    5     0.10000      25.99976           1
	------------------------------------------------
	Norm of target step-size    0.10000
	Projected energy change by RFO approximation:        -0.0006967485

	Back-transformation to cartesian coordinates...
	Successfully converged to displaced geometry.

	--- Internal Coordinate Step in ANG or DEG, aJ/ANG or AJ/DEG ---
	 ---------------------------------------------------------------------------
	   Coordinate                Previous        Force       Change         New 
	   ----------                --------       ------       ------       ------
	    1 R(1,4)          =      1.081987     0.031233     0.005809     1.087796
	    2 R(2,4)          =      1.082715     0.027467     0.004877     1.087593
	    3 R(3,4)          =      1.081440     0.033478     0.006183     1.087623
	    4 R(4,7)          =      1.532828    -0.038238    -0.010076     1.522753
	    5 R(5,7)          =      1.082425     0.030618     0.005629     1.088055
	    6 R(6,7)          =      1.082214     0.035471     0.006680     1.088894
	    7 R(7,10)         =      1.542570    -0.014598    -0.004911     1.537659
	    8 R(8,10)         =      1.082304     0.035141     0.006617     1.088921
	    9 R(9,10)         =      1.082180     0.031833     0.005840     1.088020
	   10 R(10,14)        =      1.532273    -0.036241    -0.009586     1.522686
	   11 R(11,14)        =      1.082454     0.028981     0.005133     1.087588
	   12 R(12,14)        =      1.081863     0.031968     0.005931     1.087795
	   13 R(13,14)        =      1.081949     0.030949     0.005744     1.087693
	   14 B(1,4,2)        =    108.911474    -0.000145    -0.619293   108.292181
	   15 B(1,4,3)        =    109.083293    -0.000149    -0.819562   108.263731
	   16 B(1,4,7)        =    109.590095     0.000106     0.549121   110.139216
	   17 B(2,4,3)        =    108.920011    -0.000153    -0.649361   108.270650
	   18 B(2,4,7)        =    110.581936     0.000207     0.853675   111.435611
	   19 B(3,4,7)        =    109.726392     0.000126     0.621394   110.347787
	   20 B(4,7,5)        =    108.979101    -0.000056     0.102984   109.082085
	   21 B(4,7,6)        =    109.138047    -0.000056    -0.108719   109.029328
	   22 B(4,7,10)       =    110.974413     0.000269     1.098622   112.073035
	   23 B(5,7,6)        =    109.088194    -0.000095    -1.230088   107.858106
	   24 B(5,7,10)       =    109.420375    -0.000012     0.210112   109.630487
	   25 B(6,7,10)       =    109.213177    -0.000056    -0.140199   109.072979
	   26 B(7,10,8)       =    109.189649    -0.000056    -0.131542   109.058106
	   27 B(7,10,9)       =    109.430463    -0.000012     0.208754   109.639217
	   28 B(7,10,14)      =    110.981818     0.000268     1.093229   112.075047
	   29 B(8,10,9)       =    109.098134    -0.000096    -1.235851   107.862283
	   30 B(8,10,14)      =    109.090387    -0.000051    -0.080319   109.010068
	   31 B(9,10,14)      =    109.022916    -0.000059     0.078295   109.101211
	   32 B(10,14,11)     =    110.605421     0.000205     0.839545   111.444966
	   33 B(10,14,12)     =    109.627522     0.000100     0.518154   110.145676
	   34 B(10,14,13)     =    109.755747     0.000121     0.604550   110.360297
	   35 B(11,14,12)     =    108.917417    -0.000143    -0.617654   108.299763
	   36 B(11,14,13)     =    108.878291    -0.000149    -0.624534   108.253756
	   37 B(12,14,13)     =    109.026909    -0.000143    -0.783531   108.243378
	   38 D(1,4,7,5)      =   -179.613510     0.000019     0.748339  -178.865171
	   39 D(1,4,7,6)      =    -60.574627    -0.000023    -0.738072   -61.312698
	   40 D(1,4,7,10)     =     59.828903    -0.000008    -0.286991    59.541912
	   41 D(2,4,7,5)      =    -59.539508     0.000023     0.881349   -58.658159
	   42 D(2,4,7,6)      =     59.499375    -0.000018    -0.605062    58.894314
	   43 D(2,4,7,10)     =    179.902905    -0.000004    -0.153981   179.748924
	   44 D(3,4,7,5)      =     60.632508     0.000028     1.028931    61.661439
[...]
  CGR           8          0          1   1.278E-06
  CGR           9          1          0   1.846E-07

    CGRSolver converged.

  ==> DFCorrGrad: Density-Fitted Correlated Gradients <==

    OpenMP threads:              1
    Integrals threads:           1
    Memory (MB):               715
    Schwarz Cutoff:          0E+00
    Fitting Condition:       1E-12

   => Auxiliary Basis Set <=

  Basis Set: (AUG-CC-PVTZ AUX)
    Blend: AUG-CC-PVTZ-JKFIT
    Number of shells: 260
    Number of basis function: 876
    Number of Cartesian functions: 1074
    Spherical Harmonics?: true
    Max angular momentum: 4

	-----------------------------------------------------------
	 ==================> DF-MP2 Energies <==================== 
	-----------------------------------------------------------
	 Reference Energy          =    -157.3510546761100386 [Eh]
	 Singles Energy            =      -0.0000000000000000 [Eh]
	 Same-Spin Energy          =      -0.1654083783393456 [Eh]
	 Opposite-Spin Energy      =      -0.6400168207404615 [Eh]
	 Correlation Energy        =      -0.8054251990798071 [Eh]
	 Total Energy              =    -158.1564798751898593 [Eh]
	-----------------------------------------------------------
	 ================> DF-SCS-MP2 Energies <================== 
	-----------------------------------------------------------
	 SCS Same-Spin Scale       =       0.3333333333333333 [-]
	 SCS Opposite-Spin Scale   =       1.2000000000000000 [-]
	 SCS Same-Spin Energy      =      -0.0551361261131152 [Eh]
	 SCS Opposite-Spin Energy  =      -0.7680201848885538 [Eh]
	 SCS Correlation Energy    =      -0.8231563110016691 [Eh]
	 SCS Total Energy          =    -158.1742109871117066 [Eh]
	-----------------------------------------------------------


  -Total Gradient:
     Atom            X                  Y                   Z
    ------   -----------------  -----------------  -----------------
       1       -0.000010599281    -0.000000610952     0.000020288277
       2       -0.000010492102     0.000010130202     0.000001857760
       3       -0.000012678196    -0.000011167646    -0.000002989974
       4        0.000919981929     0.000305499711     0.001410539012
       5       -0.000022137099    -0.000019735971    -0.000018446134
       6        0.000004019681     0.000000801618    -0.000024650179
       7       -0.001346368395    -0.000499568680    -0.001311735485
       8       -0.000011042476    -0.000001131891    -0.000022518501
       9        0.000015557446     0.000018975155    -0.000024950817
      10        0.000893069123     0.000474601034    -0.001661168834
      11        0.000010620349    -0.000010853990    -0.000001052713
      12        0.000015966732     0.000000945068     0.000016543675
      13        0.000010006808     0.000010056003    -0.000006064620
      14       -0.000455904521    -0.000277939658     0.001624348535


*** tstop() called on gpu-2-12.local at Wed Jun 14 15:11:12 2017
Module time:
	user time   =     306.78 seconds =       5.11 minutes
	system time =       2.86 seconds =       0.05 minutes
	total time  =        310 seconds =       5.17 minutes
Total time:
	user time   =    2801.01 seconds =      46.68 minutes
	system time =      22.42 seconds =       0.37 minutes
	total time  =       2823 seconds =      47.05 minutes

			-----------------------------------------
			 OPTKING 2.0: for geometry optimizations 
			  - R.A. King,  Bethel University        
			-----------------------------------------

	Previous internal coordinate definitions found.
	---Fragment 1 Geometry and Gradient---
	 H          -2.7982752511        0.6819307749        2.9293017451
	 H          -3.9542389350        3.2114657527        1.0996770124
	 H          -4.5204741792        0.0717531317        0.1545902998
	 C          -3.1326148465        1.3295129884        1.0057391794
	 H          -1.0145487539        2.0581596423       -2.3803652390
	 H           0.6489945711        2.5987934534        0.4094871760
	 C          -0.6857787726        1.3111799254       -0.4908893150
	 H          -0.4914099689       -2.5900055017        0.6268928534
	 H           0.2664152782       -2.0998919764       -2.5398763799
	 C           0.5121925062       -1.3208625794       -0.6507229486
	 H           4.1104633748       -3.2027594733       -0.0721451276
	 H           3.5441555745       -0.6402969905        1.9761281033
	 H           4.3623147509       -0.0806011464       -1.1947833177
	 C           3.2933180468       -1.3205482139        0.0511395962
	            -0.0000105993       -0.0000006110        0.0000202883
	            -0.0000104921        0.0000101302        0.0000018578
	            -0.0000126782       -0.0000111676       -0.0000029900
	             0.0009199819        0.0003054997        0.0014105390
	            -0.0000221371       -0.0000197360       -0.0000184461
	             0.0000040197        0.0000008016       -0.0000246502
	            -0.0013463684       -0.0004995687       -0.0013117355
	            -0.0000110425       -0.0000011319       -0.0000225185
	             0.0000155574        0.0000189752       -0.0000249508
	             0.0008930691        0.0004746010       -0.0016611688
	             0.0000106203       -0.0000108540       -0.0000010527
	             0.0000159667        0.0000009451        0.0000165437
	             0.0000100068        0.0000100560       -0.0000060646
	            -0.0004559045       -0.0002779397        0.0016243485

	---Fragment 1 Intrafragment Coordinates---
	 - Coordinate -           - BOHR/RAD -       - ANG/DEG -
	 R(1,4)           =         2.056997	       1.088516
	 R(2,4)           =         2.055635	       1.087795
	 R(3,4)           =         2.057321	       1.088687
	 R(4,7)           =         2.868317	       1.517848
	 R(5,7)           =         2.058200	       1.089153
	 R(6,7)           =         2.061613	       1.090958
	 R(7,10)          =         2.896261	       1.532635
	 R(8,10)          =         2.061612	       1.090958
	 R(9,10)          =         2.058202	       1.089153
	 R(10,14)         =         2.868322	       1.517851
	 R(11,14)         =         2.055637	       1.087796
	 R(12,14)         =         2.056998	       1.088517
	 R(13,14)         =         2.057315	       1.088684
	 B(1,4,2)         =         1.886464	     108.086453
	 B(1,4,3)         =         1.879748	     107.701607
	 B(1,4,7)         =         1.925451	     110.320194
	 B(2,4,3)         =         1.884915	     107.997679
	 B(2,4,7)         =         1.950512	     111.756130
	 B(3,4,7)         =         1.934450	     110.835830
	 B(4,7,5)         =         1.918162	     109.902565
	 B(4,7,6)         =         1.896983	     108.689130
	 B(4,7,10)        =         1.968661	     112.795957
	 B(5,7,6)         =         1.852174	     106.121747
	 B(5,7,10)        =         1.923279	     110.195755
	 B(6,7,10)        =         1.900636	     108.898408
	 B(7,10,8)        =         1.900636	     108.898428
	 B(7,10,9)        =         1.923282	     110.195915
	 B(7,10,14)       =         1.968659	     112.795878
	 B(8,10,9)        =         1.852173	     106.121713
	 B(8,10,14)       =         1.896982	     108.689061
	 B(9,10,14)       =         1.918162	     109.902567
	 B(10,14,11)      =         1.950510	     111.755978
	 B(10,14,12)      =         1.925448	     110.320039
	 B(10,14,13)      =         1.934448	     110.835690
	 B(11,14,12)      =         1.886465	     108.086459
	 B(11,14,13)      =         1.884919	     107.997883
	 B(12,14,13)      =         1.879752	     107.701869
	 D(1,4,7,5)       =        -3.087684	    -176.911248
	 D(1,4,7,6)       =        -1.067709	     -61.175228
	 D(1,4,7,10)      =         1.041831	      59.692493
	 D(2,4,7,5)       =        -0.988398	     -56.631044
	 D(2,4,7,6)       =         1.031576	      59.104976
	 D(2,4,7,10)      =         3.141116	     179.972697
	 D(3,4,7,5)       =         1.115069	      63.888771
	 D(3,4,7,6)       =         3.135044	     179.624791
	 D(3,4,7,10)      =        -1.038602	     -59.507488
	 D(4,7,10,8)      =        -0.166146	      -9.519469
	 D(4,7,10,9)      =         1.858755	     106.498839
	 D(4,7,10,14)     =        -2.273599	    -130.267633
	 D(5,7,10,8)      =        -2.316976	    -132.752932
	 D(5,7,10,9)      =        -0.292074	     -16.734624
	 D(5,7,10,14)     =         1.858757	     106.498904
	 D(6,7,10,8)      =         1.941309	     111.228819
	 D(6,7,10,9)      =        -2.316975	    -132.752873
	 D(6,7,10,14)     =        -0.166144	      -9.519344
	 D(7,10,14,11)    =         3.141096	     179.971526
	 D(7,10,14,12)    =         1.041814	      59.691521
	 D(7,10,14,13)    =        -1.038621	     -59.508598
	 D(8,10,14,11)    =         1.031557	      59.103879
	 D(8,10,14,12)    =        -1.067725	     -61.176126
	 D(8,10,14,13)    =         3.135026	     179.623755
	 D(9,10,14,11)    =        -0.988416	     -56.632062
	 D(9,10,14,12)    =        -3.087698	    -176.912067
	 D(9,10,14,13)    =         1.115053	      63.887814

	Current energy   :      -158.1564798752

	Energy change for the previous step:
		Projected    :         0.0000003613
		Actual       :         0.0000009272

	Performing BFGS update.
	Previous computed or guess Hessian on step 1.
	Steps to be used in Hessian update: 6 5
	Adding user-defined constraint: Fragment 1; Coordinate 49:
		Value =    -2.273599; Fixed value    =    -2.268930
		Force =     0.003035; Force constant =     0.650000
	Removing off-diagonal coupling between coordinate 49 and others.
	Taking RFO optimization step.
	Going to follow RFO solution 1.
	Rejecting RFO root 1 because normalization gives large value.
	Rejecting RFO root 2 because normalization gives large value.
	Rejecting RFO root 3 because normalization gives large value.
	Using RFO vector 4.
	Norm of target step-size    0.00121
	Projected energy change by RFO approximation:        -0.0000000071

	Back-transformation to cartesian coordinates...
	Successfully converged to displaced geometry.

	--- Internal Coordinate Step in ANG or DEG, aJ/ANG or AJ/DEG ---
	 ---------------------------------------------------------------------------
	   Coordinate                Previous        Force       Change         New 
	   ----------                --------       ------       ------       ------
	    1 R(1,4)          =      1.088516    -0.000144    -0.000019     1.088497
	    2 R(2,4)          =      1.087795    -0.000112    -0.000014     1.087782
	    3 R(3,4)          =      1.088687    -0.000137    -0.000019     1.088668
	    4 R(4,7)          =      1.517848     0.000066     0.000041     1.517889
	    5 R(5,7)          =      1.089153    -0.000110    -0.000016     1.089137
	    6 R(6,7)          =      1.090958     0.000063     0.000015     1.090974
	    7 R(7,10)         =      1.532635    -0.000057    -0.000011     1.532625
	    8 R(8,10)         =      1.090958     0.000065     0.000016     1.090974
	    9 R(9,10)         =      1.089153    -0.000114    -0.000016     1.089137
	   10 R(10,14)        =      1.517851     0.000056     0.000039     1.517890
	   11 R(11,14)        =      1.087796    -0.000117    -0.000014     1.087782
	   12 R(12,14)        =      1.088517    -0.000146    -0.000019     1.088497
	   13 R(13,14)        =      1.088684    -0.000123    -0.000017     1.088667
	   14 B(1,4,2)        =    108.086453     0.000001     0.004696   108.091149
	   15 B(1,4,3)        =    107.701607     0.000001     0.003617   107.705224
	   16 B(1,4,7)        =    110.320194    -0.000001    -0.009261   110.310934
	   17 B(2,4,3)        =    107.997679     0.000000     0.002454   108.000133
	   18 B(2,4,7)        =    111.756130    -0.000000    -0.002098   111.754032
	   19 B(3,4,7)        =    110.835830    -0.000000     0.001121   110.836951
	   20 B(4,7,5)        =    109.902565     0.000001    -0.008500   109.894066
	   21 B(4,7,6)        =    108.689130    -0.000001    -0.002453   108.686677
	   22 B(4,7,10)       =    112.795957     0.000000     0.001966   112.797923
	   23 B(5,7,6)        =    106.121747    -0.000000     0.002412   106.124159
	   24 B(5,7,10)       =    110.195755     0.000001     0.004269   110.200024
	   25 B(6,7,10)       =    108.898408    -0.000001     0.002358   108.900766
	   26 B(7,10,8)       =    108.898428    -0.000001     0.002400   108.900828
	   27 B(7,10,9)       =    110.195915     0.000001     0.004076   110.199991
	   28 B(7,10,14)      =    112.795878     0.000000     0.002025   112.797903
	   29 B(8,10,9)       =    106.121713    -0.000000     0.002481   106.124193
	   30 B(8,10,14)      =    108.689061    -0.000001    -0.002375   108.686686
	   31 B(9,10,14)      =    109.902567     0.000001    -0.008549   109.894018
	   32 B(10,14,11)     =    111.755978    -0.000000    -0.001969   111.754010
	   33 B(10,14,12)     =    110.320039    -0.000001    -0.009182   110.310857
	   34 B(10,14,13)     =    110.835690     0.000000     0.001297   110.836988
	   35 B(11,14,12)     =    108.086459     0.000001     0.004674   108.091133
	   36 B(11,14,13)     =    107.997883     0.000000     0.002268   108.000151
	   37 B(12,14,13)     =    107.701869     0.000001     0.003418   107.705288
	   38 D(1,4,7,5)      =   -176.911248     0.000000     0.015402  -176.895845
	   39 D(1,4,7,6)      =    -61.175228     0.000000     0.012230   -61.162998
	   40 D(1,4,7,10)     =     59.692493    -0.000000     0.014777    59.707270
	   41 D(2,4,7,5)      =    -56.631044     0.000000     0.013668   -56.617377
	   42 D(2,4,7,6)      =     59.104976    -0.000000     0.010495    59.115471
	   43 D(2,4,7,10)     =    179.972697    -0.000000     0.013042   179.985739
	   44 D(3,4,7,5)      =     63.888771     0.000000     0.016139    63.904909
	   45 D(3,4,7,6)      =    179.624791     0.000000     0.012966   179.637757
	   46 D(3,4,7,10)     =    -59.507488    -0.000000     0.015513   -59.491975
	   47 D(4,7,10,8)     =     -9.519469     0.000000    -0.001209    -9.520678
	   48 D(4,7,10,9)     =    106.498839     0.000000     0.005447   106.504286
	   49 D(4,7,10,14)    =   -130.267633     0.000000    -0.001182  -130.268815
	   50 D(5,7,10,8)     =   -132.752932    -0.000000     0.005255  -132.747677
	   51 D(5,7,10,9)     =    -16.734624    -0.000000     0.011910   -16.722714
	   52 D(5,7,10,14)    =    106.498904     0.000000     0.005281   106.504185
	   53 D(6,7,10,8)     =    111.228819    -0.000000    -0.001401   111.227418
	   54 D(6,7,10,9)     =   -132.752873    -0.000000     0.005255  -132.747618
	   55 D(6,7,10,14)    =     -9.519344     0.000000    -0.001375    -9.520719
	   56 D(7,10,14,11)   =    179.971526    -0.000000     0.015047   179.986573
	   57 D(7,10,14,12)   =     59.691521    -0.000000     0.016671    59.708192
	   58 D(7,10,14,13)   =    -59.508598    -0.000000     0.017491   -59.491107
	   59 D(8,10,14,11)   =     59.103879    -0.000000     0.012355    59.116233
	   60 D(8,10,14,12)   =    -61.176126     0.000000     0.013978   -61.162148
	   61 D(8,10,14,13)   =    179.623755     0.000000     0.014799   179.638553
	   62 D(9,10,14,11)   =    -56.632062     0.000000     0.015428   -56.616634
	   63 D(9,10,14,12)   =   -176.912067     0.000000     0.017052  -176.895016
	   64 D(9,10,14,13)   =     63.887814     0.000000     0.017872    63.905686
	 ---------------------------------------------------------------------------
	Successfully symmetrized geometry.
	 Forces used to impose fixed constraints are not included.
	  Forces zeroed: 49 

  ==> Convergence Check <==

  Measures of convergence in internal coordinates in au.
  Criteria marked as inactive (o), active & met (*), and active & unmet ( ).
  ---------------------------------------------------------------------------------------------
   Step     Total Energy     Delta E     MAX Force     RMS Force      MAX Disp      RMS Disp   
  ---------------------------------------------------------------------------------------------
    Convergence Criteria    1.00e-06 *    3.00e-04 *             o    1.20e-03 *             o
  ---------------------------------------------------------------------------------------------
      7    -158.15647988    9.27e-07 *    1.93e-05 *    1.09e-05 o    3.12e-04 *    1.51e-04 o  ~
  ---------------------------------------------------------------------------------------------


  **** Optimization is complete! (in 7 steps) ****

  ==> Optimization Summary <==

  Measures of convergence in internal coordinates in au.
  --------------------------------------------------------------------------------------------------------------- ~
   Step         Total Energy             Delta E       MAX Force       RMS Force        MAX Disp        RMS Disp  ~
  --------------------------------------------------------------------------------------------------------------- ~
      1    -158.152282772720   -158.152282772720      0.01270541      0.00553208      0.02578517      0.01251316  ~
      2    -158.155233626732     -0.002950854012      0.00464128      0.00217358      0.03478813      0.01251549  ~
      3    -158.156209848803     -0.000976222071      0.00160714      0.00062989      0.04916810      0.01252978  ~
      4    -158.156454975666     -0.000245126863      0.00094531      0.00019153      0.01818915      0.00673939  ~
      5    -158.156477586638     -0.000022610973      0.00009300      0.00004144      0.00431481      0.00139757  ~
      6    -158.156480802391     -0.000003215752      0.00003814      0.00001420      0.00143495      0.00054274  ~
      7    -158.156479875190      0.000000927201      0.00002549      0.00001140      0.00031193      0.00015090  ~
  --------------------------------------------------------------------------------------------------------------- ~

	Writing optimization data to binary file.
	Final energy is   -158.1564798751899
	Final (previous) structure:
	Cartesian Geometry (in Angstrom)
	    H    -1.4807834862   0.3608622239   1.5501197206
	    H    -2.0924931217   1.6994344825   0.5819240118
	    H    -2.3921319076   0.0379701219   0.0818056633
	    C    -1.6577083800   0.7035479720   0.5322142515
	    H    -0.5368760776   1.0891311743  -1.2596350326
	    H     0.3434331355   1.3752222654   0.2166912807
	    C    -0.3628984966   0.6938465329  -0.2597674374
	    H    -0.2600429556  -1.3705718816   0.3317374103
	    H     0.1409808933  -1.1112149744  -1.3440446929
	    C     0.2710406007  -0.6989703727  -0.3443477535
	    H     2.1751635347  -1.6948273179  -0.0381775572
	    H     1.8754863537  -0.3388305741   1.0457219535
	    H     2.3084375429  -0.0426522896  -0.6322521009
	    C     1.7427488510  -0.6988040176   0.0270619087
	Saving final (previous) structure.
			--------------------------
			 OPTKING Finished Execution 
			--------------------------

    Final optimized geometry and variables:
    Molecular point group: c1
    Full point group: C1

    Geometry (in Angstrom), charge = 0, multiplicity = 1:

    H           -1.480783486220     0.360862223909     1.550119720610
    H           -2.092493121719     1.699434482515     0.581924011767
    H           -2.392131907630     0.037970121930     0.081805663300
    C           -1.657708380048     0.703547972004     0.532214251534
    H           -0.536876077582     1.089131174324    -1.259635032597
    H            0.343433135531     1.375222265397     0.216691280749
    C           -0.362898496614     0.693846532887    -0.259767437424
    H           -0.260042955616    -1.370571881627     0.331737410267
    H            0.140980893256    -1.111214974391    -1.344044692856
    C            0.271040600669    -0.698970372680    -0.344347753531
    H            2.175163534687    -1.694827317883    -0.038177557215
    H            1.875486353740    -0.338830574106     1.045721953513
    H            2.308437542887    -0.042652289638    -0.632252100909
    C            1.742748851010    -0.698804017616     0.027061908743

	Cleaning optimization helper files.

*** Psi4 exiting successfully. Buy a developer a beer!
