
    -----------------------------------------------------------------------
          Psi4: An Open-Source Ab Initio Electronic Structure Package
                               Psi4 1.1 release

                         Git: Rev {HEAD} add49b9 


    R. M. Parrish, L. A. Burns, D. G. A. Smith, A. C. Simmonett,
    A. E. DePrince III, E. G. Hohenstein, U. Bozkaya, A. Yu. Sokolov,
    R. Di Remigio, R. M. Richard, J. F. Gonthier, A. M. James,
    H. R. McAlexander, A. Kumar, M. Saitow, X. Wang, B. P. Pritchard,
    P. Verma, H. F. Schaefer III, K. Patkowski, R. A. King, E. F. Valeev,
    F. A. Evangelista, J. M. Turney, T. D. Crawford, and C. D. Sherrill,
    J. Chem. Theory Comput. in press (2017).
    (doi: 10.1021/acs.jctc.7b00174)

    -----------------------------------------------------------------------


    Psi4 started on: Wednesday, 14 June 2017 02:21PM

    Process ID:   6950
    PSIDATADIR: /cbio/jclab/home/chayas/anaconda/envs/py35/share/psi4
    Memory:     500.0 MiB
    Threads:    1
    
  ==> Input File <==

--------------------------------------------------------------------------

memory 5000 mb

molecule butane {
  symmetry C1
  0 1 
  H      1.541   1.589   -8.068
  H      1.958   2.148   -9.671
  H      1.893   0.435   -9.332
  C      2.142   1.395   -8.932
  H      4.169   2.051   -9.210
  H      3.731   1.788   -7.539
  C      3.631   1.416   -8.537
  H      3.665   -0.647   -7.940
  H      4.104   -0.384   -9.610
  C      4.203   -0.012   -8.612
  H      6.088   -0.983   -8.270
  H      5.791   0.381   -7.220
  H      6.230   0.644   -8.890
  C      5.691   0.009   -8.218
  units Angstrom
}

dih_string = "10 7 4 3 350"
set optking fixed_dihedral = $dih_string

optimize('MP2/aug-cc-pvtz')
--------------------------------------------------------------------------

  Memory set to   4.657 GiB by Python driver.
gradient() will perform analytic gradient computation.

*** tstart() called on gpu-2-10.local
*** at Wed Jun 14 14:21:22 2017

    SCF Algorithm Type (re)set to DF.

*** tstart() called on gpu-2-10.local
*** at Wed Jun 14 14:21:22 2017

   => Loading Basis Set <=

    Name: AUG-CC-PVTZ
    Role: ORBITAL
    Keyword: BASIS
    atoms 1-3, 5-6, 8-9, 11-13 entry H          line    34 file /cbio/jclab/home/chayas/anaconda/envs/py35/share/psi4/basis/aug-cc-pvtz.gbs 
    atoms 4, 7, 10, 14         entry C          line   221 file /cbio/jclab/home/chayas/anaconda/envs/py35/share/psi4/basis/aug-cc-pvtz.gbs 


         ---------------------------------------------------------
                                   SCF
            by Justin Turney, Rob Parrish, and Andy Simmonett
                              RHF Reference
                        1 Threads,   4768 MiB Core
         ---------------------------------------------------------

  ==> Geometry <==

    Molecular point group: c1
    Full point group: C1

    Geometry (in Angstrom), charge = 0, multiplicity = 1:

       Center              X                  Y                   Z               Mass       
    ------------   -----------------  -----------------  -----------------  -----------------
           H         -2.375793382205     0.886965294236     0.506793382205     1.007825032070
           H         -1.958793382205     1.445965294236    -1.096206617795     1.007825032070
           H         -2.023793382205    -0.267034705764    -0.757206617795     1.007825032070
           C         -1.774793382205     0.692965294236    -0.357206617795    12.000000000000
           H          0.252206617795     1.348965294236    -0.635206617795     1.007825032070
           H         -0.185793382205     1.085965294236     1.035793382205     1.007825032070
           C         -0.285793382205     0.713965294236     0.037793382205    12.000000000000
           H         -0.251793382205    -1.349034705764     0.634793382205     1.007825032070
           H          0.187206617795    -1.086034705764    -1.035206617795     1.007825032070
           C          0.286206617795    -0.714034705764    -0.037206617795    12.000000000000
           H          2.171206617795    -1.685034705764     0.304793382205     1.007825032070
           H          1.874206617795    -0.321034705764     1.354793382205     1.007825032070
           H          2.313206617795    -0.058034705764    -0.315206617795     1.007825032070
           C          1.774206617795    -0.693034705764     0.356793382205    12.000000000000

  Running in c1 symmetry.

  Rotational constants: A =      0.76943  B =      0.12464  C =      0.11638 [cm^-1]
  Rotational constants: A =  23067.01374  B =   3736.63219  C =   3488.91415 [MHz]
  Nuclear repulsion =  131.845486837798632

  Charge       = 0
  Multiplicity = 1
  Electrons    = 34
  Nalpha       = 17
  Nbeta        = 17

  ==> Algorithm <==

  SCF Algorithm Type is DF.
  DIIS enabled.
  MOM disabled.
  Fractional occupation disabled.
  Guess Type is SAD.
  Energy threshold   = 1.00e-10
  Density threshold  = 1.00e-10
  Integral threshold = 0.00e+00

  ==> Primary Basis <==

  Basis Set: AUG-CC-PVTZ
    Blend: AUG-CC-PVTZ
    Number of shells: 146
    Number of basis function: 414
    Number of Cartesian functions: 470
    Spherical Harmonics?: true
    Max angular momentum: 3

   => Loading Basis Set <=

    Name: (AUG-CC-PVTZ AUX)
    Role: JKFIT
    Keyword: DF_BASIS_SCF
    atoms 1-3, 5-6, 8-9, 11-13 entry H          line    69 file /cbio/jclab/home/chayas/anaconda/envs/py35/share/psi4/basis/aug-cc-pvtz-jkfit.gbs 
    atoms 4, 7, 10, 14         entry C          line   161 file /cbio/jclab/home/chayas/anaconda/envs/py35/share/psi4/basis/aug-cc-pvtz-jkfit.gbs 

  ==> Pre-Iterations <==

   -------------------------------------------------------
    Irrep   Nso     Nmo     Nalpha   Nbeta   Ndocc  Nsocc
   -------------------------------------------------------
     A        414     414       0       0       0       0
   -------------------------------------------------------
    Total     414     414      17      17      17       0
   -------------------------------------------------------

  ==> Integral Setup <==

  ==> DFJK: Density-Fitted J/K Matrices <==

    J tasked:                  Yes
    K tasked:                  Yes
    wK tasked:                  No
    OpenMP threads:              1
    Integrals threads:           1
    Memory (MB):              3576
    Algorithm:                Core
    Integral Cache:           NONE
    Schwarz Cutoff:          1E-12
    Fitting Condition:       1E-12

   => Auxiliary Basis Set <=

  Basis Set: (AUG-CC-PVTZ AUX)
    Blend: AUG-CC-PVTZ-JKFIT
    Number of shells: 260
    Number of basis function: 876
    Number of Cartesian functions: 1074
    Spherical Harmonics?: true
    Max angular momentum: 4

  Minimum eigenvalue in the overlap matrix is 8.3729898181E-06.
  Using Symmetric Orthogonalization.

  SCF Guess: Superposition of Atomic Densities via on-the-fly atomic UHF.

  ==> Iterations <==

                           Total Energy        Delta E     RMS |[F,P]|

   @DF-RHF iter   0:  -158.86933382552843   -1.58869e+02   9.32073e-03 
   @DF-RHF iter   1:  -157.22078771616756    1.64855e+00   1.00251e-03 
   @DF-RHF iter   2:  -157.33130977152649   -1.10522e-01   3.51966e-04 DIIS
   @DF-RHF iter   3:  -157.34514227769029   -1.38325e-02   1.25107e-04 DIIS
   @DF-RHF iter   4:  -157.34750488503130   -2.36261e-03   2.05686e-05 DIIS
   @DF-RHF iter   5:  -157.34758133676499   -7.64517e-05   6.47790e-06 DIIS
   @DF-RHF iter   6:  -157.34758780335267   -6.46659e-06   1.51718e-06 DIIS
   @DF-RHF iter   7:  -157.34758820320323   -3.99851e-07   2.59769e-07 DIIS
   @DF-RHF iter   8:  -157.34758821948003   -1.62768e-08   4.98112e-08 DIIS
   @DF-RHF iter   9:  -157.34758822007080   -5.90774e-10   1.16647e-08 DIIS
   @DF-RHF iter  10:  -157.34758822010170   -3.08944e-11   2.89518e-09 DIIS
   @DF-RHF iter  11:  -157.34758822010448   -2.78533e-12   7.93878e-10 DIIS
   @DF-RHF iter  12:  -157.34758822010468   -1.98952e-13   1.72369e-10 DIIS
   @DF-RHF iter  13:  -157.34758822010360    1.08002e-12   3.99637e-11 DIIS

  ==> Post-Iterations <==

    Orbital Energies (a.u.)
    -----------------------

    Doubly Occupied:                                                      

       1A    -11.207341     2A    -11.205446     3A    -11.198204  
       4A    -11.197125     5A     -1.070730     6A     -0.980862  
       7A     -0.861088     8A     -0.795605     9A     -0.646283  
      10A     -0.587335    11A     -0.577486    12A     -0.571764  
      13A     -0.511469    14A     -0.504888    15A     -0.471573  
      16A     -0.469454    17A     -0.440430  

    Virtual:                                                              

      18A      0.032360    19A      0.037799    20A      0.039556  
      21A      0.040110    22A      0.058242    23A      0.059388  
      24A      0.060480    25A      0.061108    26A      0.076231  
      27A      0.083349    28A      0.103386    29A      0.112875  
      30A      0.122389    31A      0.130479    32A      0.139592  
      33A      0.142061    34A      0.142596    35A      0.144488  
      36A      0.148410    37A      0.161248    38A      0.165614  
      39A      0.168151    40A      0.173741    41A      0.196314  
      42A      0.201339    43A      0.217985    44A      0.223723  
      45A      0.241396    46A      0.250859    47A      0.255929  
      48A      0.265745    49A      0.281139    50A      0.282981  
      51A      0.290540    52A      0.309959    53A      0.319044  
      54A      0.335186    55A      0.341261    56A      0.345646  
      57A      0.357868    58A      0.359384    59A      0.360038  
      60A      0.365324    61A      0.370115    62A      0.370996  
      63A      0.384131    64A      0.388930    65A      0.389528  
      66A      0.392405    67A      0.395541    68A      0.397296  
      69A      0.406066    70A      0.409680    71A      0.415024  
      72A      0.432792    73A      0.441292    74A      0.444073  
      75A      0.447820    76A      0.463522    77A      0.464439  
      78A      0.465675    79A      0.469129    80A      0.486847  
      81A      0.490853    82A      0.500863    83A      0.509240  
      84A      0.511146    85A      0.518876    86A      0.521558  
      87A      0.525518    88A      0.531844    89A      0.540638  
      90A      0.544547    91A      0.547291    92A      0.557798  
      93A      0.561170    94A      0.577557    95A      0.583818  
      96A      0.588585    97A      0.592031    98A      0.616606  
      99A      0.619858   100A      0.634300   101A      0.641120  
     102A      0.652403   103A      0.677129   104A      0.680717  
     105A      0.697286   106A      0.718836   107A      0.751897  
     108A      0.774012   109A      0.793012   110A      0.815464  
     111A      0.824596   112A      0.829389   113A      0.833485  
     114A      0.838763   115A      0.846340   116A      0.857035  
     117A      0.867950   118A      0.879944   119A      0.884645  
     120A      0.889544   121A      0.893851   122A      0.899863  
     123A      0.918935   124A      0.920716   125A      0.921577  
     126A      0.926337   127A      0.933419   128A      0.941267  
     129A      0.951229   130A      0.954816   131A      0.966692  
     132A      0.976435   133A      0.982239   134A      0.989891  
     135A      0.993318   136A      1.016707   137A      1.025636  
     138A      1.039431   139A      1.047020   140A      1.060757  
     141A      1.074424   142A      1.081083   143A      1.084670  
     144A      1.091173   145A      1.104522   146A      1.106141  
     147A      1.121232   148A      1.142205   149A      1.153379  
     150A      1.158352   151A      1.159988   152A      1.170340  
     153A      1.185202   154A      1.197566   155A      1.217838  
     156A      1.230693   157A      1.237465   158A      1.245290  
     159A      1.252657   160A      1.257509   161A      1.262343  
     162A      1.269924   163A      1.276676   164A      1.293221  
     165A      1.297738   166A      1.307519   167A      1.314408  
     168A      1.318716   169A      1.338831   170A      1.356796  
     171A      1.365634   172A      1.393212   173A      1.406463  
     174A      1.420708   175A      1.435908   176A      1.449651  
     177A      1.465292   178A      1.479990   179A      1.487527  
     180A      1.495087   181A      1.516938   182A      1.530494  
     183A      1.540443   184A      1.553700   185A      1.569723  
     186A      1.594253   187A      1.601946   188A      1.613278  
     189A      1.626682   190A      1.644148   191A      1.650777  
     192A      1.674543   193A      1.681363   194A      1.693997  
     195A      1.704590   196A      1.704874   197A      1.710878  
     198A      1.718603   199A      1.723691   200A      1.728825  
     201A      1.736358   202A      1.753669   203A      1.757644  
     204A      1.767378   205A      1.770503   206A      1.774593  
     207A      1.786145   208A      1.809084   209A      1.825911  
     210A      1.833857   211A      1.857826   212A      1.880119  
     213A      1.907145   214A      1.913735   215A      1.933092  
     216A      1.962800   217A      1.972423   218A      1.973837  
     219A      1.985111   220A      2.008221   221A      2.013672  
     222A      2.019063   223A      2.035481   224A      2.040423  
     225A      2.056569   226A      2.071689   227A      2.072949  
     228A      2.088184   229A      2.101153   230A      2.151160  
     231A      2.166687   232A      2.193410   233A      2.197692  
     234A      2.215434   235A      2.236730   236A      2.261355  
     237A      2.273470   238A      2.281668   239A      2.299488  
     240A      2.309009   241A      2.321827   242A      2.350392  
     243A      2.364885   244A      2.370088   245A      2.374095  
     246A      2.409835   247A      2.424604   248A      2.450980  
     249A      2.461966   250A      2.481394   251A      2.511198  
     252A      2.544581   253A      2.582640   254A      2.612983  
     255A      2.619977   256A      2.672511   257A      2.789341  
     258A      2.867828   259A      2.952746   260A      3.030724  
     261A      3.183030   262A      3.251918   263A      3.284482  
     264A      3.361451   265A      3.397798   266A      3.420459  
     267A      3.438894   268A      3.457198   269A      3.468323  
     270A      3.483914   271A      3.526564   272A      3.557642  
     273A      3.572682   274A      3.582066   275A      3.592653  
     276A      3.600294   277A      3.624448   278A      3.669717  
     279A      3.679117   280A      3.693360   281A      3.698734  
     282A      3.710150   283A      3.716586   284A      3.740577  
     285A      3.748530   286A      3.780892   287A      3.794376  
     288A      3.799982   289A      3.827958   290A      3.845645  
     291A      3.849592   292A      3.864802   293A      3.880586  
     294A      3.891451   295A      3.917026   296A      3.922836  
     297A      3.959216   298A      3.983228   299A      3.984261  
     300A      4.000757   301A      4.010550   302A      4.013424  
     303A      4.029348   304A      4.041022   305A      4.058556  
     306A      4.068632   307A      4.079766   308A      4.101247  
     309A      4.165289   310A      4.178685   311A      4.197416  
     312A      4.209278   313A      4.239489   314A      4.249792  
     315A      4.253337   316A      4.274885   317A      4.284983  
     318A      4.296436   319A      4.314720   320A      4.328642  
     321A      4.358005   322A      4.371234   323A      4.385361  
     324A      4.438159   325A      4.459046   326A      4.478581  
     327A      4.533130   328A      4.540925   329A      4.559541  
     330A      4.577217   331A      4.608436   332A      4.648525  
     333A      4.667307   334A      4.678908   335A      4.703126  
     336A      4.719586   337A      4.743937   338A      4.755904  
     339A      4.773005   340A      4.804713   341A      4.819962  
     342A      4.874381   343A      4.877068   344A      4.887540  
     345A      4.902262   346A      4.931578   347A      4.951418  
     348A      4.973479   349A      4.985556   350A      5.005470  
     351A      5.027545   352A      5.053332   353A      5.065533  
     354A      5.117118   355A      5.140242   356A      5.152585  
     357A      5.192513   358A      5.210344   359A      5.219736  
     360A      5.255788   361A      5.262852   362A      5.279961  
     363A      5.300135   364A      5.330897   365A      5.353540  
     366A      5.358683   367A      5.372958   368A      5.408509  
     369A      5.439170   370A      5.460733   371A      5.468803  
     372A      5.486327   373A      5.511445   374A      5.527993  
     375A      5.564462   376A      5.579540   377A      5.606970  
     378A      5.647968   379A      5.654945   380A      5.685994  
     381A      5.714233   382A      5.745016   383A      5.764434  
     384A      5.805733   385A      5.819112   386A      5.865834  
     387A      5.893799   388A      5.951881   389A      5.987342  
     390A      6.036137   391A      6.079118   392A      6.140232  
     393A      6.162179   394A      6.186591   395A      6.228928  
     396A      6.244017   397A      6.275086   398A      6.338028  
     399A      6.346922   400A      6.374691   401A      6.410346  
     402A      6.500935   403A      6.560893   404A      6.635104  
     405A      6.753476   406A      6.778831   407A      6.823960  
     408A      6.850860   409A      6.876592   410A      6.980171  
     411A     18.085788   412A     18.218334   413A     18.895080  
     414A     19.921060  

    Final Occupation by Irrep:
              A 
    DOCC [    17 ]

  Energy converged.

  @DF-RHF Final Energy:  -157.34758822010360

   => Energetics <=

    Nuclear Repulsion Energy =            131.8454868377986315
    One-Electron Energy =                -471.7919867055750274
    Two-Electron Energy =                 182.5989116476728213
    DFT Exchange-Correlation Energy =       0.0000000000000000
    Empirical Dispersion Energy =           0.0000000000000000
    PCM Polarization Energy =               0.0000000000000000
    EFP Energy =                            0.0000000000000000
    Total Energy =                       -157.3475882201036029



Properties will be evaluated at   0.000000,   0.000000,   0.000000 Bohr

Properties computed using the SCF density matrix

  Nuclear Dipole Moment: (a.u.)
     X:     0.0019      Y:     0.0015      Z:    -0.0019

  Electronic Dipole Moment: (a.u.)
     X:    -0.0016      Y:    -0.0021      Z:     0.0031

  Dipole Moment: (a.u.)
     X:     0.0003      Y:    -0.0005      Z:     0.0011     Total:     0.0013

  Dipole Moment: (Debye)
     X:     0.0008      Y:    -0.0013      Z:     0.0028     Total:     0.0032


*** tstop() called on gpu-2-10.local at Wed Jun 14 14:22:48 2017
Module time:
	user time   =      84.60 seconds =       1.41 minutes
	system time =       0.63 seconds =       0.01 minutes
	total time  =         86 seconds =       1.43 minutes
Total time:
	user time   =      84.61 seconds =       1.41 minutes
	system time =       0.63 seconds =       0.01 minutes
	total time  =         86 seconds =       1.43 minutes

  //>>>>>>>>>>>>>>>>>>>>>>>>>>>>>>>>>>>//
  //               DFMP2               //
  //<<<<<<<<<<<<<<<<<<<<<<<<<<<<<<<<<<<//

   => Loading Basis Set <=

    Name: (AUG-CC-PVTZ AUX)
    Role: RIFIT
    Keyword: DF_BASIS_MP2
    atoms 1-3, 5-6, 8-9, 11-13 entry H          line    29 file /cbio/jclab/home/chayas/anaconda/envs/py35/share/psi4/basis/aug-cc-pvtz-ri.gbs 
    atoms 4, 7, 10, 14         entry C          line   147 file /cbio/jclab/home/chayas/anaconda/envs/py35/share/psi4/basis/aug-cc-pvtz-ri.gbs 

	 --------------------------------------------------------
	                          DF-MP2                         
	      2nd-Order Density-Fitted Moller-Plesset Theory     
	              RMP2 Wavefunction,   1 Threads             
	                                                         
	        Rob Parrish, Justin Turney, Andy Simmonett,      
	           Ed Hohenstein, and C. David Sherrill          
	 --------------------------------------------------------

   => Auxiliary Basis Set <=

  Basis Set: (AUG-CC-PVTZ AUX)
    Blend: AUG-CC-PVTZ-RI
    Number of shells: 252
    Number of basis function: 884
    Number of Cartesian functions: 1094
    Spherical Harmonics?: true
    Max angular momentum: 4

	 --------------------------------------------------------
	                 NBF =   414, NAUX =   884
	 --------------------------------------------------------
	   CLASS    FOCC     OCC    AOCC    AVIR     VIR    FVIR
	   PAIRS       0      17      17     397     397       0
	 --------------------------------------------------------


         ------------------------------------------------------------
                                     CPHF                           
                                  Rob Parrish                       
         ------------------------------------------------------------

  ==> Geometry <==

    Molecular point group: c1
    Full point group: C1

    Geometry (in Angstrom), charge = 0, multiplicity = 1:

       Center              X                  Y                   Z               Mass       
    ------------   -----------------  -----------------  -----------------  -----------------
           H         -2.375793382205     0.886965294236     0.506793382205     1.007825032070
           H         -1.958793382205     1.445965294236    -1.096206617795     1.007825032070
           H         -2.023793382205    -0.267034705764    -0.757206617795     1.007825032070
           C         -1.774793382205     0.692965294236    -0.357206617795    12.000000000000
           H          0.252206617795     1.348965294236    -0.635206617795     1.007825032070
           H         -0.185793382205     1.085965294236     1.035793382205     1.007825032070
           C         -0.285793382205     0.713965294236     0.037793382205    12.000000000000
           H         -0.251793382205    -1.349034705764     0.634793382205     1.007825032070
           H          0.187206617795    -1.086034705764    -1.035206617795     1.007825032070
           C          0.286206617795    -0.714034705764    -0.037206617795    12.000000000000
           H          2.171206617795    -1.685034705764     0.304793382205     1.007825032070
           H          1.874206617795    -0.321034705764     1.354793382205     1.007825032070
           H          2.313206617795    -0.058034705764    -0.315206617795     1.007825032070
           C          1.774206617795    -0.693034705764     0.356793382205    12.000000000000

  Nuclear repulsion =  131.845486837798632
  Reference energy  = -157.347588220103603

  ==> Basis Set <==

  Basis Set: AUG-CC-PVTZ
    Blend: AUG-CC-PVTZ
    Number of shells: 146
    Number of basis function: 414
    Number of Cartesian functions: 470
    Spherical Harmonics?: true
    Max angular momentum: 3

  ==> CGRSolver (by Rob Parrish) <==

   Number of roots    =         1
   Preconditioning    =    JACOBI
   Convergence cutoff =     1E-06
   Maximum iterations =       100

  ==> CPHFRHamiltonian (by Rob Parrish) <== 

  ==> DFJK: Density-Fitted J/K Matrices <==

    J tasked:                  Yes
    K tasked:                  Yes
    wK tasked:                  No
    OpenMP threads:              1
    Integrals threads:           1
    Memory (MB):              3576
    Algorithm:                Core
    Integral Cache:           NONE
    Schwarz Cutoff:          1E-12
    Fitting Condition:       1E-12

   => Auxiliary Basis Set <=

  Basis Set: (AUG-CC-PVTZ AUX)
    Blend: AUG-CC-PVTZ-JKFIT
    Number of shells: 260
    Number of basis function: 876
    Number of Cartesian functions: 1074
    Spherical Harmonics?: true
    Max angular momentum: 4

  ==> CPHF Iterations <==

  => Iterations <=

             Iter  Converged  Remaining    Residual
  CGR           1          0          1   8.175E-02
  CGR           2          0          1   1.314E-02
  CGR           3          0          1   3.417E-03
  CGR           4          0          1   8.054E-04
  CGR           5          0          1   1.186E-04
  CGR           6          0          1   2.158E-05
  CGR           7          0          1   4.111E-06
  CGR           8          0          1   1.083E-06
  CGR           9          1          0   2.814E-07

    CGRSolver converged.

  ==> DFCorrGrad: Density-Fitted Correlated Gradients <==

    OpenMP threads:              1
    Integrals threads:           1
    Memory (MB):              3576
    Schwarz Cutoff:          0E+00
    Fitting Condition:       1E-12

   => Auxiliary Basis Set <=

  Basis Set: (AUG-CC-PVTZ AUX)
    Blend: AUG-CC-PVTZ-JKFIT
    Number of shells: 260
    Number of basis function: 876
    Number of Cartesian functions: 1074
    Spherical Harmonics?: true
    Max angular momentum: 4

	-----------------------------------------------------------
	 ==================> DF-MP2 Energies <==================== 
	-----------------------------------------------------------
	 Reference Energy          =    -157.3475882201036029 [Eh]
	 Singles Energy            =      -0.0000000000000000 [Eh]
	 Same-Spin Energy          =      -0.1654780683710888 [Eh]
	 Opposite-Spin Energy      =      -0.6394511572700565 [Eh]
	 Correlation Energy        =      -0.8049292256411453 [Eh]
	 Total Energy              =    -158.1525174457447349 [Eh]
	-----------------------------------------------------------
	 ================> DF-SCS-MP2 Energies <================== 
	-----------------------------------------------------------
	 SCS Same-Spin Scale       =       0.3333333333333333 [-]
	 SCS Opposite-Spin Scale   =       1.2000000000000000 [-]
	 SCS Same-Spin Energy      =      -0.0551593561236963 [Eh]
	 SCS Opposite-Spin Energy  =      -0.7673413887240678 [Eh]
	 SCS Correlation Energy    =      -0.8225007448477640 [Eh]
	 SCS Total Energy          =    -158.1700889649513613 [Eh]
	-----------------------------------------------------------


  -Total Gradient:
     Atom            X                  Y                   Z
    ------   -----------------  -----------------  -----------------
       1        0.010295257450    -0.000905962014    -0.006193133282
       2        0.007176095440    -0.006496763324     0.006901148421
       3        0.005994965528     0.009226601274     0.005349360001
       4       -0.019296228451    -0.007093088309    -0.006123687933
       5       -0.009011643461    -0.007011809230     0.005123079560
       6       -0.004889389291    -0.005563408798    -0.010551810698
       7        0.016656632892     0.029841817874     0.010219817389
       8        0.008298637737     0.008408383130    -0.006386611689
       9        0.003543877002     0.005121203172     0.011554996729
      10       -0.024137389458    -0.031402168678    -0.012002277285
      11       -0.008463551001     0.010076478060    -0.000644643861
      12       -0.003260076098    -0.004024753206    -0.011002503086
      13       -0.007537683508    -0.006638856405     0.006246635043
      14        0.024630495221     0.006462326454     0.007509630690


*** tstop() called on gpu-2-10.local at Wed Jun 14 14:27:05 2017
Module time:
	user time   =     337.92 seconds =       5.63 minutes
	system time =       4.12 seconds =       0.07 minutes
	total time  =        343 seconds =       5.72 minutes
Total time:
	user time   =     337.93 seconds =       5.63 minutes
	system time =       4.12 seconds =       0.07 minutes
	total time  =        343 seconds =       5.72 minutes

			-----------------------------------------
			 OPTKING 2.0: for geometry optimizations 
			  - R.A. King,  Bethel University        
			-----------------------------------------

	Internal coordinates to be generated automatically.
	Detected frag 1 with atoms:  1 2 3 4 5 6 7 8 9 10 11 12 13 14
	---Fragment 1 Bond Connectivity---
	 1 : 4
	 2 : 4
	 3 : 4
	 4 : 1 2 3 7
	 5 : 7
	 6 : 7
	 7 : 4 5 6 10
	 8 : 10
	 9 : 10
	 10 : 7 8 9 14
	 11 : 14
	 12 : 14
	 13 : 14
	 14 : 10 11 12 13

	Assuming in current code that numbering for constraints corresponds to unified fragment.
	Fixed dihedral atom list: 
	    10     7     4     3
	---Fragment 1 Geometry and Gradient---
	 H          -4.4895988407        1.6761214955        0.9577006983
	 H          -3.7015830433        2.7324784038       -2.0715302927
	 H          -3.8244152419       -0.5046224619       -1.4309131336
	 C          -3.3538734348        1.3095146257       -0.6750226805
	 H           0.4766014365        2.5491749689       -1.2003665454
	 H          -0.3510986097        2.0521769959        1.9573658226
	 C          -0.5400712230        1.3491988745        0.0714191420
	 H          -0.4758205344       -2.5493061377        1.1995856433
	 H           0.3537692379       -2.0523081647       -1.9562569986
	 C           0.5408521251       -1.3493300433       -0.0703103180
	 H           4.1029858855       -3.1842541183        0.5759760195
	 H           3.5417372241       -0.6066676730        2.5601884590
	 H           4.3713269964       -0.1096697001       -0.5956541829
	 C           3.3527646108       -1.3096457945        0.6742417784
	             0.0102952574       -0.0009059620       -0.0061931333
	             0.0071760954       -0.0064967633        0.0069011484
	             0.0059949655        0.0092266013        0.0053493600
	            -0.0192962285       -0.0070930883       -0.0061236879
	            -0.0090116435       -0.0070118092        0.0051230796
	            -0.0048893893       -0.0055634088       -0.0105518107
	             0.0166566329        0.0298418179        0.0102198174
	             0.0082986377        0.0084083831       -0.0063866117
	             0.0035438770        0.0051212032        0.0115549967
	            -0.0241373895       -0.0314021687       -0.0120022773
	            -0.0084635510        0.0100764781       -0.0006446439
	            -0.0032600761       -0.0040247532       -0.0110025031
	            -0.0075376835       -0.0066388564        0.0062466350
	             0.0246304952        0.0064623265        0.0075096307

	Previous optimization step data not found.  Starting new optimization.

	---Fragment 1 Intrafragment Coordinates---
	 - Coordinate -           - BOHR/RAD -       - ANG/DEG -
	 R(1,4)           =         2.022389	       1.070202
	 R(2,4)           =         2.023848	       1.070974
	 R(3,4)           =         2.020860	       1.069393
	 R(4,7)           =         2.911397	       1.540645
	 R(5,7)           =         2.022623	       1.070326
	 R(6,7)           =         2.021555	       1.069761
	 R(7,10)          =         2.910419	       1.540128
	 R(8,10)          =         2.021436	       1.069698
	 R(9,10)          =         2.021379	       1.069668
	 R(10,14)         =         2.909087	       1.539422
	 R(11,14)         =         2.021545	       1.069756
	 R(12,14)         =         2.021555	       1.069761
	 R(13,14)         =         2.022387	       1.070201
	 B(1,4,2)         =         1.910427	     109.459394
	 B(1,4,3)         =         1.911284	     109.508507
	 B(1,4,7)         =         1.910591	     109.468802
	 B(2,4,3)         =         1.910355	     109.455298
	 B(2,4,7)         =         1.910679	     109.473833
	 B(3,4,7)         =         1.910463	     109.461487
	 B(4,7,5)         =         1.909937	     109.431343
	 B(4,7,6)         =         1.911630	     109.528316
	 B(4,7,10)        =         1.911154	     109.501062
	 B(5,7,6)         =         1.910605	     109.469614
	 B(5,7,10)        =         1.910047	     109.437654
	 B(6,7,10)        =         1.910425	     109.459295
	 B(7,10,8)        =         1.910303	     109.452301
	 B(7,10,9)        =         1.910824	     109.482155
	 B(7,10,14)       =         1.911213	     109.504437
	 B(8,10,9)        =         1.910417	     109.458846
	 B(8,10,14)       =         1.910766	     109.478806
	 B(9,10,14)       =         1.910276	     109.450772
	 B(10,14,11)      =         1.910943	     109.488965
	 B(10,14,12)      =         1.911204	     109.503926
	 B(10,14,13)      =         1.911557	     109.524173
	 B(11,14,12)      =         1.910410	     109.458432
	 B(11,14,13)      =         1.910054	     109.438058
	 B(12,14,13)      =         1.909629	     109.413709
	 D(1,4,7,5)       =        -2.268877	    -129.997079
	 D(1,4,7,6)       =        -0.174333	      -9.988527
	 D(1,4,7,10)      =         1.920738	     110.050180
	 D(2,4,7,5)       =        -0.174733	     -10.011445
	 D(2,4,7,6)       =         1.919812	     109.997107
	 D(2,4,7,10)      =        -2.268303	    -129.964186
	 D(3,4,7,5)       =         1.919246	     109.964696
	 D(3,4,7,6)       =        -2.269395	    -130.026752
	 D(3,4,7,10)      =        -0.174324	      -9.988045
	 D(4,7,10,8)      =        -1.047368	     -60.009777
	 D(4,7,10,9)      =         1.046677	      59.970178
	 D(4,7,10,14)     =         3.141107	     179.972182
	 D(5,7,10,8)      =        -3.140871	    -179.958653
	 D(5,7,10,9)      =        -1.046826	     -59.978698
	 D(5,7,10,14)     =         1.047604	      60.023306
	 D(6,7,10,8)      =         1.048439	      60.071149
	 D(6,7,10,9)      =        -3.140701	    -179.948896
	 D(6,7,10,14)     =        -1.046271	     -59.946893
	 D(7,10,14,11)    =         3.141408	     179.989448
	 D(7,10,14,12)    =         1.046747	      59.974196
	 D(7,10,14,13)    =        -1.047335	     -60.007849
	 D(8,10,14,11)    =         1.046982	      59.987626
	 D(8,10,14,12)    =        -1.047680	     -60.027626
	 D(8,10,14,13)    =         3.141424	     179.990329
	 D(9,10,14,11)    =        -1.047012	     -59.989345
	 D(9,10,14,12)    =         3.141512	     179.995403
	 D(9,10,14,13)    =         1.047431	      60.013359

	Current energy   :      -158.1525174457

	Generating empirical Hessian (Schlegel '84) for each fragment.
	Adding user-defined constraint: Fragment 1; Coordinate 46:
		Value =    -0.174324; Fixed value    =    -0.174533
		Force =    -0.000104; Force constant =     0.500000
	Removing off-diagonal coupling between coordinate 46 and others.
	Taking RFO optimization step.
	Going to follow RFO solution 1.
	Using RFO vector 1.

	Determining step-restricting scale parameter for RS-RFO.
	Maximum step size allowed    0.10000

	 Iter      |step|        alpha        rfo_root  
	------------------------------------------------
	    0     0.20776       1.00000           1
	    1     0.15747       6.89605           1
	    2     0.12359      19.15971           1
	    3     0.10608      32.79495           1
	    4     0.10057      39.05059           1
	    5     0.10001      39.76043           1
	------------------------------------------------
	Norm of target step-size    0.10001
	Projected energy change by RFO approximation:        -0.0047608598

	Back-transformation to cartesian coordinates...
	Could not converge backtransformation.
	Using first guess instead.

	--- Internal Coordinate Step in ANG or DEG, aJ/ANG or AJ/DEG ---
	 ---------------------------------------------------------------------------
	   Coordinate                Previous        Force       Change         New 
	   ----------                --------       ------       ------       ------
	    1 R(1,4)          =      1.070202     0.090178     0.010659     1.080861
	    2 R(2,4)          =      1.070974     0.087023     0.010320     1.081294
	    3 R(3,4)          =      1.069393     0.096225     0.011487     1.080880
	    4 R(4,7)          =      1.540645     0.032473     0.004640     1.545285
	    5 R(5,7)          =      1.070326     0.098131     0.011549     1.081875
	    6 R(6,7)          =      1.069761     0.100806     0.011846     1.081606
	    7 R(7,10)         =      1.540128    -0.072351    -0.009915     1.530213
	    8 R(8,10)         =      1.069698     0.108565     0.012741     1.082438
	    9 R(9,10)         =      1.069668     0.106196     0.012462     1.082130
	   10 R(10,14)        =      1.539422    -0.047865    -0.006616     1.532807
	   11 R(11,14)        =      1.069756     0.102602     0.012072     1.081828
	   12 R(12,14)        =      1.069761     0.098607     0.011614     1.081375
	   13 R(13,14)        =      1.070201     0.096046     0.011324     1.081525
	   14 B(1,4,2)        =    109.459394    -0.000403    -0.881141   108.578253
	   15 B(1,4,3)        =    109.508507    -0.000337    -0.804875   108.703632
	   16 B(1,4,7)        =    109.468802     0.000398     0.877314   110.346116
	   17 B(2,4,3)        =    109.455298    -0.000338    -0.748224   108.707075
	   18 B(2,4,7)        =    109.473833     0.000462     1.054071   110.527904
	   19 B(3,4,7)        =    109.461487     0.000217     0.467908   109.929395
	   20 B(4,7,5)        =    109.431343    -0.000075     0.029766   109.461108
	   21 B(4,7,6)        =    109.528316    -0.000097    -0.039263   109.489054
	   22 B(4,7,10)       =    109.501062     0.000767     1.556592   111.057654
	   23 B(5,7,6)        =    109.469614    -0.000002    -0.283627   109.185987
	   24 B(5,7,10)       =    109.437654    -0.000292    -0.636286   108.801368
	   25 B(6,7,10)       =    109.459295    -0.000302    -0.643313   108.815982
	   26 B(7,10,8)       =    109.452301    -0.000227    -0.454276   108.998025
	   27 B(7,10,9)       =    109.482155    -0.000253    -0.525649   108.956507
	   28 B(7,10,14)      =    109.504437     0.000702     1.418744   110.923181
	   29 B(8,10,9)       =    109.458846     0.000024    -0.173380   109.285466
	   30 B(8,10,14)      =    109.478806    -0.000133    -0.159908   109.318898
	   31 B(9,10,14)      =    109.450772    -0.000114    -0.115277   109.335495
	   32 B(10,14,11)     =    109.488965     0.000417     0.954231   110.443195
	   33 B(10,14,12)     =    109.503926     0.000126     0.267281   109.771206
	   34 B(10,14,13)     =    109.524173     0.000106     0.221916   109.746089
	   35 B(11,14,12)     =    109.458432    -0.000247    -0.535138   108.923294
	   36 B(11,14,13)     =    109.438058    -0.000240    -0.521079   108.916979
	   37 B(12,14,13)     =    109.413709    -0.000162    -0.402301   109.011409
	   38 D(1,4,7,5)      =   -129.997079     0.000001    -0.011889  -130.008969
	   39 D(1,4,7,6)      =     -9.988527    -0.000023    -0.364781   -10.353308
	   40 D(1,4,7,10)     =    110.050180    -0.000014    -0.213130   109.837050
	   41 D(2,4,7,5)      =    -10.011445     0.000009     0.114473    -9.896972
	   42 D(2,4,7,6)      =    109.997107    -0.000016    -0.238418   109.758688
	   43 D(2,4,7,10)     =   -129.964186    -0.000006    -0.086767  -130.050953
	   44 D(3,4,7,5)      =    109.964696     0.000010     0.142013   110.106709
	   45 D(3,4,7,6)      =   -130.026752    -0.000015    -0.210878  -130.237630
	   46 D(3,4,7,10)     =     -9.988045    -0.000006    -0.059228   -10.047272
	   47 D(4,7,10,8)     =    -60.009777     0.000034     0.449846   -59.559930
	   48 D(4,7,10,9)     =     59.970178    -0.000027    -0.347936    59.622242
	   49 D(4,7,10,14)    =    179.972182     0.000004     0.055862   180.028043
	   50 D(5,7,10,8)     =   -179.958653    -0.000012    -0.146131  -180.104784
	   51 D(5,7,10,9)     =    -59.978698    -0.000072    -0.943914   -60.922611
	   52 D(5,7,10,14)    =     60.023306    -0.000041    -0.540116    59.483190
	   53 D(6,7,10,8)     =     60.071149     0.000072     0.957886    61.029035
	   54 D(6,7,10,9)     =   -179.948896     0.000011     0.160104  -179.788792
	   55 D(6,7,10,14)    =    -59.946893     0.000042     0.563902   -59.382991
	   56 D(7,10,14,11)   =    179.989448     0.000002     0.026177   180.015625
	   57 D(7,10,14,12)   =     59.974196    -0.000005    -0.075649    59.898547
	   58 D(7,10,14,13)   =    -60.007849     0.000008     0.116668   -59.891181
	   59 D(8,10,14,11)   =     59.987626    -0.000014    -0.193381    59.794245
	   60 D(8,10,14,12)   =    -60.027626    -0.000021    -0.295207   -60.322833
	   61 D(8,10,14,13)   =    179.990329    -0.000008    -0.102890   179.887439
	   62 D(9,10,14,11)   =    -59.989345     0.000013     0.185541   -59.803804
	   63 D(9,10,14,12)   =    179.995403     0.000007     0.083715   180.079118
	   64 D(9,10,14,13)   =     60.013359     0.000020     0.276032    60.289391
	 ---------------------------------------------------------------------------
	Successfully symmetrized geometry.
	 Forces used to impose fixed constraints are not included.
	  Forces zeroed: 46 

  ==> Convergence Check <==

  Measures of convergence in internal coordinates in au.
  Criteria marked as inactive (o), active & met (*), and active & unmet ( ).
  --------------------------------------------------------------------------------------------- ~
   Step     Total Energy     Delta E     MAX Force     RMS Force      MAX Disp      RMS Disp    ~
  --------------------------------------------------------------------------------------------- ~
    Convergence Criteria    1.00e-06 *    3.00e-04 *             o    1.20e-03 *             o  ~
  --------------------------------------------------------------------------------------------- ~
      1    -158.15251745   -1.58e+02      1.32e-02      5.68e-03 o    2.72e-02      1.25e-02 o  ~
  ---------------------------------------------------------------------------------------------

	Writing optimization data to binary file.
	Structure for next step:
	Cartesian Geometry (in Angstrom)
	    H    -2.4018737159   0.8963615707   0.5067538776
	    H    -1.9837033965   1.4601406836  -1.1024252047
	    H    -2.0563881508  -0.2630422480  -0.7669242746
	    C    -1.7851589365   0.7004624713  -0.3590099528
	    H     0.2585632013   1.3442510712  -0.6437519228
	    H    -0.1837306233   1.0797641991   1.0426241056
	    C    -0.2906726340   0.7042983026   0.0339313068
	    H    -0.2471760489  -1.3488773255   0.6456584402
	    H     0.1965380881  -1.0826269659  -1.0421311990
	    C     0.2989942034  -0.7061599163  -0.0327849381
	    H     2.1899765394  -1.6992310296   0.3081170218
	    H     1.8914955747  -0.3249802656   1.3668161193
	    H     2.3339426519  -0.0599427299  -0.3169384649
	    C     1.7810858961  -0.6989036987   0.3581724364
			--------------------------
			 OPTKING Finished Execution 
			--------------------------

    Structure for next step:
    Molecular point group: c1
    Full point group: C1

    Geometry (in Angstrom), charge = 0, multiplicity = 1:

    H           -2.402710656269     0.896392613550     0.506728265598
    H           -1.984540336891     1.460171726486    -1.102450816702
    H           -2.057225091259    -0.263011205105    -0.766949886569
    C           -1.785995876920     0.700493514110    -0.359035564801
    H            0.257726260930     1.344282114088    -0.643777534784
    H           -0.184567563747     1.079795241964     1.042598493617
    C           -0.291509574366     0.704329345489     0.033905694829
    H           -0.248012989322    -1.348846282676     0.645632828170
    H            0.195701147733    -1.082595923027    -1.042156811039
    C            0.298157263036    -0.706128873430    -0.032810550098
    H            2.189139598968    -1.699199986728     0.308091409826
    H            1.890658634281    -0.324949222760     1.366790507298
    H            2.333105711449    -0.059911687009    -0.316964076849
    C            1.780248955736    -0.698872655807     0.358146824436

gradient() will perform analytic gradient computation.

*** tstart() called on gpu-2-10.local
*** at Wed Jun 14 14:27:05 2017

    SCF Algorithm Type (re)set to DF.

*** tstart() called on gpu-2-10.local
*** at Wed Jun 14 14:27:05 2017

   => Loading Basis Set <=

    Name: AUG-CC-PVTZ
    Role: ORBITAL
    Keyword: BASIS
    atoms 1-3, 5-6, 8-9, 11-13 entry H          line    34 file /cbio/jclab/home/chayas/anaconda/envs/py35/share/psi4/basis/aug-cc-pvtz.gbs 
    atoms 4, 7, 10, 14         entry C          line   221 file /cbio/jclab/home/chayas/anaconda/envs/py35/share/psi4/basis/aug-cc-pvtz.gbs 


         ---------------------------------------------------------
                                   SCF
            by Justin Turney, Rob Parrish, and Andy Simmonett
                              RHF Reference
                        1 Threads,   4768 MiB Core
         ---------------------------------------------------------

  ==> Geometry <==

    Molecular point group: c1
    Full point group: C1

    Geometry (in Angstrom), charge = 0, multiplicity = 1:

       Center              X                  Y                   Z               Mass       
    ------------   -----------------  -----------------  -----------------  -----------------
           H         -2.402710656269     0.896392613550     0.506728265598     1.007825032070
           H         -1.984540336891     1.460171726486    -1.102450816702     1.007825032070
           H         -2.057225091259    -0.263011205105    -0.766949886569     1.007825032070
           C         -1.785995876920     0.700493514110    -0.359035564801    12.000000000000
           H          0.257726260930     1.344282114088    -0.643777534784     1.007825032070
           H         -0.184567563747     1.079795241964     1.042598493617     1.007825032070
           C         -0.291509574366     0.704329345489     0.033905694829    12.000000000000
           H         -0.248012989322    -1.348846282676     0.645632828170     1.007825032070
           H          0.195701147733    -1.082595923027    -1.042156811039     1.007825032070
           C          0.298157263036    -0.706128873430    -0.032810550098    12.000000000000
           H          2.189139598968    -1.699199986728     0.308091409826     1.007825032070
           H          1.890658634281    -0.324949222760     1.366790507298     1.007825032070
           H          2.333105711449    -0.059911687009    -0.316964076849     1.007825032070
           C          1.780248955736    -0.698872655807     0.358146824436    12.000000000000

  Running in c1 symmetry.

  Rotational constants: A =      0.77701  B =      0.12290  C =      0.11518 [cm^-1]
  Rotational constants: A =  23294.21135  B =   3684.38578  C =   3453.05201 [MHz]
  Nuclear repulsion =  131.259874280128912

  Charge       = 0
  Multiplicity = 1
  Electrons    = 34
  Nalpha       = 17
  Nbeta        = 17

  ==> Algorithm <==

  SCF Algorithm Type is DF.
  DIIS enabled.
  MOM disabled.
  Fractional occupation disabled.
  Guess Type is READ.
  Energy threshold   = 1.00e-10
  Density threshold  = 1.00e-10
  Integral threshold = 0.00e+00

  ==> Primary Basis <==

  Basis Set: AUG-CC-PVTZ
    Blend: AUG-CC-PVTZ
    Number of shells: 146
    Number of basis function: 414
    Number of Cartesian functions: 470
    Spherical Harmonics?: true
    Max angular momentum: 3

   => Loading Basis Set <=

    Name: (AUG-CC-PVTZ AUX)
    Role: JKFIT
    Keyword: DF_BASIS_SCF
    atoms 1-3, 5-6, 8-9, 11-13 entry H          line    69 file /cbio/jclab/home/chayas/anaconda/envs/py35/share/psi4/basis/aug-cc-pvtz-jkfit.gbs 
    atoms 4, 7, 10, 14         entry C          line   161 file /cbio/jclab/home/chayas/anaconda/envs/py35/share/psi4/basis/aug-cc-pvtz-jkfit.gbs 

  Reading orbitals from file 180, no projection.

  ==> Pre-Iterations <==

   -------------------------------------------------------
    Irrep   Nso     Nmo     Nalpha   Nbeta   Ndocc  Nsocc
   -------------------------------------------------------
     A        414     414       0       0       0       0
   -------------------------------------------------------
    Total     414     414      17      17      17       0
   -------------------------------------------------------

  ==> Integral Setup <==

  ==> DFJK: Density-Fitted J/K Matrices <==

    J tasked:                  Yes
    K tasked:                  Yes
    wK tasked:                  No
    OpenMP threads:              1
    Integrals threads:           1
    Memory (MB):              3576
    Algorithm:                Core
    Integral Cache:           NONE
    Schwarz Cutoff:          1E-12
    Fitting Condition:       1E-12

   => Auxiliary Basis Set <=

  Basis Set: (AUG-CC-PVTZ AUX)
    Blend: AUG-CC-PVTZ-JKFIT
    Number of shells: 260
    Number of basis function: 876
    Number of Cartesian functions: 1074
    Spherical Harmonics?: true
    Max angular momentum: 4

  Minimum eigenvalue in the overlap matrix is 8.9579279844E-06.
  Using Symmetric Orthogonalization.

  SCF Guess: Orbitals guess was supplied from a previous computation.

  ==> Iterations <==

                           Total Energy        Delta E     RMS |[F,P]|

   @DF-RHF iter   0:  -157.27572795262350   -1.57276e+02   1.21229e-04 
   @DF-RHF iter   1:  -157.35018882651849   -7.44609e-02   4.85194e-05 
   @DF-RHF iter   2:  -157.35042813413440   -2.39308e-04   2.50513e-05 DIIS
   @DF-RHF iter   3:  -157.35047917550273   -5.10414e-05   2.73901e-06 DIIS
   @DF-RHF iter   4:  -157.35048052461266   -1.34911e-06   7.40609e-07 DIIS
   @DF-RHF iter   5:  -157.35048060816501   -8.35524e-08   2.48667e-07 DIIS
   @DF-RHF iter   6:  -157.35048061786591   -9.70090e-09   4.36284e-08 DIIS
   @DF-RHF iter   7:  -157.35048061828653   -4.20613e-10   7.03730e-09 DIIS
   @DF-RHF iter   8:  -157.35048061829687   -1.03455e-11   1.54722e-09 DIIS
   @DF-RHF iter   9:  -157.35048061829582    1.05160e-12   3.47864e-10 DIIS
   @DF-RHF iter  10:  -157.35048061829781   -1.98952e-12   7.13387e-11 DIIS

  ==> Post-Iterations <==

    Orbital Energies (a.u.)
    -----------------------

    Doubly Occupied:                                                      

       1A    -11.210459     2A    -11.209489     3A    -11.203336  
       4A    -11.202806     5A     -1.069969     6A     -0.978502  
       7A     -0.860665     8A     -0.790125     9A     -0.643545  
      10A     -0.583879    11A     -0.573452    12A     -0.572561  
      13A     -0.510160    14A     -0.501977    15A     -0.467058  
      16A     -0.465231    17A     -0.447991  

    Virtual:                                                              

      18A      0.032353    19A      0.037594    20A      0.039641  
      21A      0.040170    22A      0.058176    23A      0.059338  
      24A      0.060451    25A      0.061297    26A      0.076178  
      27A      0.083217    28A      0.103302    29A      0.112758  
      30A      0.122375    31A      0.130617    32A      0.139522  
      33A      0.141654    34A      0.142416    35A      0.144311  
      36A      0.148402    37A      0.161296    38A      0.165977  
      39A      0.168083    40A      0.173670    41A      0.196544  
      42A      0.201224    43A      0.218234    44A      0.223588  
      45A      0.240055    46A      0.249816    47A      0.254069  
      48A      0.264587    49A      0.279386    50A      0.281710  
      51A      0.289544    52A      0.310358    53A      0.318831  
      54A      0.334995    55A      0.340388    56A      0.345378  
      57A      0.356792    58A      0.357736    59A      0.359169  
      60A      0.364088    61A      0.369547    62A      0.369688  
      63A      0.383520    64A      0.388175    65A      0.388631  
      66A      0.391578    67A      0.394829    68A      0.396295  
      69A      0.405022    70A      0.408777    71A      0.414448  
      72A      0.431235    73A      0.439719    74A      0.440727  
      75A      0.447012    76A      0.460930    77A      0.461562  
      78A      0.464740    79A      0.466649    80A      0.486104  
      81A      0.489734    82A      0.498886    83A      0.507864  
      84A      0.509001    85A      0.517630    86A      0.519897  
      87A      0.524609    88A      0.530447    89A      0.539053  
      90A      0.544035    91A      0.547164    92A      0.555815  
      93A      0.559954    94A      0.577023    95A      0.584409  
      96A      0.588285    97A      0.591066    98A      0.614430  
      99A      0.617789   100A      0.634150   101A      0.639034  
     102A      0.650679   103A      0.675258   104A      0.678977  
     105A      0.698344   106A      0.717442   107A      0.750605  
     108A      0.773124   109A      0.791623   110A      0.814571  
     111A      0.823797   112A      0.828386   113A      0.831636  
     114A      0.839186   115A      0.844264   116A      0.855756  
     117A      0.866122   118A      0.876349   119A      0.882013  
     120A      0.889462   121A      0.893550   122A      0.900193  
     123A      0.917401   124A      0.918633   125A      0.919566  
     126A      0.924101   127A      0.929020   128A      0.939994  
     129A      0.947373   130A      0.953119   131A      0.964034  
     132A      0.975112   133A      0.980853   134A      0.988239  
     135A      0.991585   136A      1.016111   137A      1.026583  
     138A      1.036431   139A      1.044752   140A      1.057121  
     141A      1.072244   142A      1.078579   143A      1.081772  
     144A      1.088376   145A      1.101003   146A      1.103742  
     147A      1.119469   148A      1.139115   149A      1.149874  
     150A      1.155635   151A      1.157766   152A      1.166032  
     153A      1.181306   154A      1.190526   155A      1.214237  
     156A      1.226312   157A      1.232460   158A      1.242367  
     159A      1.249549   160A      1.253580   161A      1.257144  
     162A      1.266543   163A      1.274398   164A      1.288883  
     165A      1.294445   166A      1.302426   167A      1.311854  
     168A      1.312571   169A      1.335687   170A      1.351082  
     171A      1.362852   172A      1.389221   173A      1.402218  
     174A      1.416295   175A      1.430943   176A      1.444170  
     177A      1.460024   178A      1.476751   179A      1.485550  
     180A      1.492156   181A      1.512374   182A      1.529762  
     183A      1.537403   184A      1.546879   185A      1.569425  
     186A      1.592937   187A      1.599548   188A      1.608624  
     189A      1.616077   190A      1.637603   191A      1.645269  
     192A      1.669627   193A      1.676786   194A      1.688994  
     195A      1.700473   196A      1.701452   197A      1.706720  
     198A      1.716548   199A      1.722843   200A      1.726831  
     201A      1.734006   202A      1.751561   203A      1.752794  
     204A      1.762857   205A      1.766341   206A      1.768835  
     207A      1.785395   208A      1.806917   209A      1.823846  
     210A      1.833048   211A      1.856138   212A      1.875530  
     213A      1.902939   214A      1.911843   215A      1.929643  
     216A      1.954861   217A      1.964553   218A      1.967957  
     219A      1.977958   220A      2.002144   221A      2.005642  
     222A      2.013654   223A      2.027891   224A      2.035239  
     225A      2.049248   226A      2.061278   227A      2.067933  
     228A      2.083792   229A      2.095627   230A      2.140595  
     231A      2.161169   232A      2.184407   233A      2.192685  
     234A      2.213761   235A      2.232039   236A      2.255345  
     237A      2.265994   238A      2.274137   239A      2.288535  
     240A      2.301920   241A      2.313117   242A      2.335048  
     243A      2.357200   244A      2.366192   245A      2.373039  
     246A      2.405946   247A      2.415611   248A      2.438674  
     249A      2.462124   250A      2.481558   251A      2.505497  
     252A      2.540465   253A      2.582571   254A      2.611906  
     255A      2.622793   256A      2.669626   257A      2.792987  
     258A      2.873152   259A      2.964622   260A      3.046025  
     261A      3.180461   262A      3.248264   263A      3.282532  
     264A      3.366746   265A      3.395072   266A      3.421529  
     267A      3.443410   268A      3.455149   269A      3.468992  
     270A      3.483817   271A      3.518338   272A      3.559179  
     273A      3.572766   274A      3.587579   275A      3.589854  
     276A      3.602087   277A      3.624708   278A      3.662985  
     279A      3.671893   280A      3.683074   281A      3.693271  
     282A      3.707092   283A      3.714592   284A      3.734928  
     285A      3.749364   286A      3.784015   287A      3.791672  
     288A      3.799764   289A      3.825892   290A      3.836533  
     291A      3.846889   292A      3.860594   293A      3.879527  
     294A      3.887660   295A      3.906762   296A      3.912768  
     297A      3.954877   298A      3.974566   299A      3.980654  
     300A      3.992450   301A      3.998680   302A      4.003993  
     303A      4.015757   304A      4.029533   305A      4.053464  
     306A      4.062529   307A      4.070065   308A      4.091546  
     309A      4.161345   310A      4.173108   311A      4.190688  
     312A      4.201013   313A      4.227578   314A      4.233856  
     315A      4.239003   316A      4.260502   317A      4.266967  
     318A      4.281764   319A      4.302349   320A      4.314629  
     321A      4.354154   322A      4.356670   323A      4.374150  
     324A      4.421952   325A      4.443274   326A      4.463149  
     327A      4.510845   328A      4.521291   329A      4.548079  
     330A      4.556736   331A      4.594959   332A      4.628488  
     333A      4.645484   334A      4.663519   335A      4.691178  
     336A      4.701378   337A      4.727605   338A      4.735941  
     339A      4.755499   340A      4.799877   341A      4.804768  
     342A      4.857661   343A      4.859894   344A      4.867254  
     345A      4.880728   346A      4.913477   347A      4.936654  
     348A      4.956531   349A      4.968575   350A      4.990161  
     351A      5.015597   352A      5.031887   353A      5.044292  
     354A      5.092702   355A      5.124112   356A      5.125877  
     357A      5.163728   358A      5.196926   359A      5.198465  
     360A      5.230814   361A      5.245059   362A      5.256564  
     363A      5.273527   364A      5.311548   365A      5.329304  
     366A      5.334994   367A      5.353948   368A      5.382770  
     369A      5.416218   370A      5.429880   371A      5.446705  
     372A      5.460341   373A      5.492868   374A      5.498849  
     375A      5.538615   376A      5.555121   377A      5.571547  
     378A      5.612468   379A      5.617764   380A      5.659613  
     381A      5.684998   382A      5.721264   383A      5.750125  
     384A      5.775532   385A      5.787186   386A      5.825374  
     387A      5.856516   388A      5.919654   389A      5.953412  
     390A      6.010844   391A      6.036522   392A      6.096672  
     393A      6.137835   394A      6.150148   395A      6.191829  
     396A      6.200316   397A      6.236650   398A      6.299511  
     399A      6.305868   400A      6.339138   401A      6.374003  
     402A      6.469735   403A      6.557225   404A      6.607357  
     405A      6.742327   406A      6.774759   407A      6.820574  
     408A      6.845746   409A      6.870128   410A      6.982669  
     411A     17.897252   412A     18.119141   413A     18.789437  
     414A     19.671702  

    Final Occupation by Irrep:
              A 
    DOCC [    17 ]

  Energy converged.

  @DF-RHF Final Energy:  -157.35048061829781

   => Energetics <=

    Nuclear Repulsion Energy =            131.2598742801289120
    One-Electron Energy =                -470.6382998075681598
    Two-Electron Energy =                 182.0279449091414676
    DFT Exchange-Correlation Energy =       0.0000000000000000
    Empirical Dispersion Energy =           0.0000000000000000
    PCM Polarization Energy =               0.0000000000000000
    EFP Energy =                            0.0000000000000000
    Total Energy =                       -157.3504806182978086



Properties will be evaluated at   0.000000,   0.000000,   0.000000 Bohr

Properties computed using the SCF density matrix

  Nuclear Dipole Moment: (a.u.)
     X:    -0.0101      Y:     0.0020      Z:    -0.0023

  Electronic Dipole Moment: (a.u.)
     X:     0.0103      Y:    -0.0031      Z:     0.0030

  Dipole Moment: (a.u.)
     X:     0.0003      Y:    -0.0011      Z:     0.0007     Total:     0.0013

  Dipole Moment: (Debye)
     X:     0.0007      Y:    -0.0027      Z:     0.0019     Total:     0.0034


*** tstop() called on gpu-2-10.local at Wed Jun 14 14:28:01 2017
Module time:
	user time   =      55.62 seconds =       0.93 minutes
	system time =       0.48 seconds =       0.01 minutes
	total time  =         56 seconds =       0.93 minutes
Total time:
	user time   =     393.60 seconds =       6.56 minutes
	system time =       4.68 seconds =       0.08 minutes
	total time  =        399 seconds =       6.65 minutes

  //>>>>>>>>>>>>>>>>>>>>>>>>>>>>>>>>>>>//
  //               DFMP2               //
  //<<<<<<<<<<<<<<<<<<<<<<<<<<<<<<<<<<<//

   => Loading Basis Set <=

    Name: (AUG-CC-PVTZ AUX)
    Role: RIFIT
    Keyword: DF_BASIS_MP2
    atoms 1-3, 5-6, 8-9, 11-13 entry H          line    29 file /cbio/jclab/home/chayas/anaconda/envs/py35/share/psi4/basis/aug-cc-pvtz-ri.gbs 
    atoms 4, 7, 10, 14         entry C          line   147 file /cbio/jclab/home/chayas/anaconda/envs/py35/share/psi4/basis/aug-cc-pvtz-ri.gbs 

	 --------------------------------------------------------
	                          DF-MP2                         
	      2nd-Order Density-Fitted Moller-Plesset Theory     
	              RMP2 Wavefunction,   1 Threads             
	                                                         
	        Rob Parrish, Justin Turney, Andy Simmonett,      
	           Ed Hohenstein, and C. David Sherrill          
	 --------------------------------------------------------

   => Auxiliary Basis Set <=

  Basis Set: (AUG-CC-PVTZ AUX)
    Blend: AUG-CC-PVTZ-RI
    Number of shells: 252
    Number of basis function: 884
    Number of Cartesian functions: 1094
    Spherical Harmonics?: true
    Max angular momentum: 4

	 --------------------------------------------------------
	                 NBF =   414, NAUX =   884
	 --------------------------------------------------------
	   CLASS    FOCC     OCC    AOCC    AVIR     VIR    FVIR
	   PAIRS       0      17      17     397     397       0
	 --------------------------------------------------------


         ------------------------------------------------------------
                                     CPHF                           
                                  Rob Parrish                       
         ------------------------------------------------------------

  ==> Geometry <==

    Molecular point group: c1
    Full point group: C1

    Geometry (in Angstrom), charge = 0, multiplicity = 1:

       Center              X                  Y                   Z               Mass       
    ------------   -----------------  -----------------  -----------------  -----------------
           H         -2.402710656269     0.896392613550     0.506728265598     1.007825032070
           H         -1.984540336891     1.460171726486    -1.102450816702     1.007825032070
           H         -2.057225091259    -0.263011205105    -0.766949886569     1.007825032070
           C         -1.785995876920     0.700493514110    -0.359035564801    12.000000000000
           H          0.257726260930     1.344282114088    -0.643777534784     1.007825032070
           H         -0.184567563747     1.079795241964     1.042598493617     1.007825032070
           C         -0.291509574366     0.704329345489     0.033905694829    12.000000000000
           H         -0.248012989322    -1.348846282676     0.645632828170     1.007825032070
           H          0.195701147733    -1.082595923027    -1.042156811039     1.007825032070
           C          0.298157263036    -0.706128873430    -0.032810550098    12.000000000000
           H          2.189139598968    -1.699199986728     0.308091409826     1.007825032070
           H          1.890658634281    -0.324949222760     1.366790507298     1.007825032070
           H          2.333105711449    -0.059911687009    -0.316964076849     1.007825032070
           C          1.780248955736    -0.698872655807     0.358146824436    12.000000000000

  Nuclear repulsion =  131.259874280128912
  Reference energy  = -157.350480618297809

  ==> Basis Set <==

  Basis Set: AUG-CC-PVTZ
    Blend: AUG-CC-PVTZ
    Number of shells: 146
    Number of basis function: 414
    Number of Cartesian functions: 470
    Spherical Harmonics?: true
    Max angular momentum: 3

  ==> CGRSolver (by Rob Parrish) <==

   Number of roots    =         1
   Preconditioning    =    JACOBI
   Convergence cutoff =     1E-06
   Maximum iterations =       100

  ==> CPHFRHamiltonian (by Rob Parrish) <== 

  ==> DFJK: Density-Fitted J/K Matrices <==

    J tasked:                  Yes
    K tasked:                  Yes
    wK tasked:                  No
    OpenMP threads:              1
    Integrals threads:           1
    Memory (MB):              3576
    Algorithm:                Core
    Integral Cache:           NONE
    Schwarz Cutoff:          1E-12
    Fitting Condition:       1E-12

   => Auxiliary Basis Set <=

  Basis Set: (AUG-CC-PVTZ AUX)
    Blend: AUG-CC-PVTZ-JKFIT
    Number of shells: 260
    Number of basis function: 876
    Number of Cartesian functions: 1074
    Spherical Harmonics?: true
    Max angular momentum: 4

  ==> CPHF Iterations <==

  => Iterations <=

             Iter  Converged  Remaining    Residual
  CGR           1          0          1   8.294E-02
  CGR           2          0          1   1.330E-02
  CGR           3          0          1   3.488E-03
  CGR           4          0          1   8.141E-04
  CGR           5          0          1   1.197E-04
  CGR           6          0          1   2.187E-05
  CGR           7          0          1   3.952E-06
  CGR           8          1          0   9.571E-07

    CGRSolver converged.

  ==> DFCorrGrad: Density-Fitted Correlated Gradients <==

    OpenMP threads:              1
    Integrals threads:           1
    Memory (MB):              3576
    Schwarz Cutoff:          0E+00
    Fitting Condition:       1E-12

   => Auxiliary Basis Set <=

  Basis Set: (AUG-CC-PVTZ AUX)
    Blend: AUG-CC-PVTZ-JKFIT
    Number of shells: 260
    Number of basis function: 876
    Number of Cartesian functions: 1074
    Spherical Harmonics?: true
    Max angular momentum: 4

	-----------------------------------------------------------
	 ==================> DF-MP2 Energies <==================== 
	-----------------------------------------------------------
	 Reference Energy          =    -157.3504806182978086 [Eh]
	 Singles Energy            =      -0.0000000000000001 [Eh]
	 Same-Spin Energy          =      -0.1653389507772039 [Eh]
	 Opposite-Spin Energy      =      -0.6397950335212707 [Eh]
	 Correlation Energy        =      -0.8051339842984747 [Eh]
	 Total Energy              =    -158.1556146025962732 [Eh]
	-----------------------------------------------------------
	 ================> DF-SCS-MP2 Energies <================== 
	-----------------------------------------------------------
	 SCS Same-Spin Scale       =       0.3333333333333333 [-]
	 SCS Opposite-Spin Scale   =       1.2000000000000000 [-]
	 SCS Same-Spin Energy      =      -0.0551129835924013 [Eh]
	 SCS Opposite-Spin Energy  =      -0.7677540402255247 [Eh]
	 SCS Correlation Energy    =      -0.8228670238179262 [Eh]
	 SCS Total Energy          =    -158.1733476421157434 [Eh]
	-----------------------------------------------------------


  -Total Gradient:
     Atom            X                  Y                   Z
    ------   -----------------  -----------------  -----------------
       1        0.004337352725     0.000352792840    -0.001459870846
       2        0.003435015901    -0.001923764897     0.001979287104
       3        0.002835792719     0.002875982148     0.002316013363
       4       -0.012667426876    -0.003666182795    -0.004105129306
       5       -0.004136686794    -0.003456685337     0.000166916051
       6       -0.003353802716    -0.003864091241    -0.002886548213
       7        0.012118032121     0.015932726506     0.006519836678
       8        0.003768916598     0.004193896575    -0.000522679390
       9        0.002663901928     0.003306498853     0.003469872819
      10       -0.013662361397    -0.016165602672    -0.006970214119
      11       -0.003524705723     0.002659069766    -0.000507424523
      12       -0.002235905989    -0.001495402593    -0.003640899901
      13       -0.003491888033    -0.002294472620     0.001473751744
      14        0.013913765537     0.003545235467     0.004167088539


*** tstop() called on gpu-2-10.local at Wed Jun 14 14:32:05 2017
Module time:
	user time   =     296.08 seconds =       4.93 minutes
	system time =       3.80 seconds =       0.06 minutes
	total time  =        300 seconds =       5.00 minutes
Total time:
	user time   =     634.06 seconds =      10.57 minutes
	system time =       8.00 seconds =       0.13 minutes
	total time  =        643 seconds =      10.72 minutes

			-----------------------------------------
			 OPTKING 2.0: for geometry optimizations 
			  - R.A. King,  Bethel University        
			-----------------------------------------

	Previous internal coordinate definitions found.
	---Fragment 1 Geometry and Gradient---
	 H          -4.5404651169        1.6939365472        0.9575776458
	 H          -3.7502377364        2.7593246700       -2.0833301185
	 H          -3.8875920162       -0.4970191475       -1.4493252433
	 C          -3.3750430818        1.3237408995       -0.6784788894
	 H           0.4870320504        2.5403250410       -1.2165632312
	 H          -0.3487821485        2.0405172869        1.9702256195
	 C          -0.5508732607        1.3309895703        0.0640724776
	 H          -0.4686766272       -2.5489500696        1.2200692276
	 H           0.3698215731       -2.0458098071       -1.9693909604
	 C           0.5634355717       -1.3343901853       -0.0620029540
	 H           4.1368743087       -3.2110226199        0.5822083885
	 H           3.5728270296       -0.6140650381        2.5828597398
	 H           4.4089308337       -0.1132166806       -0.5989752992
	 C           3.3641829747       -1.3206779212        0.6767994135
	             0.0043373527        0.0003527928       -0.0014598708
	             0.0034350159       -0.0019237649        0.0019792871
	             0.0028357927        0.0028759821        0.0023160134
	            -0.0126674269       -0.0036661828       -0.0041051293
	            -0.0041366868       -0.0034566853        0.0001669161
	            -0.0033538027       -0.0038640912       -0.0028865482
	             0.0121180321        0.0159327265        0.0065198367
	             0.0037689166        0.0041938966       -0.0005226794
	             0.0026639019        0.0033064989        0.0034698728
	            -0.0136623614       -0.0161656027       -0.0069702141
	            -0.0035247057        0.0026590698       -0.0005074245
	            -0.0022359060       -0.0014954026       -0.0036408999
	            -0.0034918880       -0.0022944726        0.0014737517
	             0.0139137655        0.0035452355        0.0041670885

	---Fragment 1 Intrafragment Coordinates---
	 - Coordinate -           - BOHR/RAD -       - ANG/DEG -
	 R(1,4)           =         2.042531	       1.080861
	 R(2,4)           =         2.043350	       1.081294
	 R(3,4)           =         2.042566	       1.080880
	 R(4,7)           =         2.920166	       1.545285
	 R(5,7)           =         2.044448	       1.081875
	 R(6,7)           =         2.043940	       1.081606
	 R(7,10)          =         2.891683	       1.530213
	 R(8,10)          =         2.045512	       1.082438
	 R(9,10)          =         2.044929	       1.082130
	 R(10,14)         =         2.896585	       1.532807
	 R(11,14)         =         2.044359	       1.081828
	 R(12,14)         =         2.043502	       1.081375
	 R(13,14)         =         2.043786	       1.081525
	 B(1,4,2)         =         1.895048	     108.578253
	 B(1,4,3)         =         1.897236	     108.703632
	 B(1,4,7)         =         1.925903	     110.346116
	 B(2,4,3)         =         1.897296	     108.707075
	 B(2,4,7)         =         1.929076	     110.527904
	 B(3,4,7)         =         1.918630	     109.929395
	 B(4,7,5)         =         1.910457	     109.461108
	 B(4,7,6)         =         1.910944	     109.489054
	 B(4,7,10)        =         1.938322	     111.057654
	 B(5,7,6)         =         1.905655	     109.185987
	 B(5,7,10)        =         1.898942	     108.801368
	 B(6,7,10)        =         1.899197	     108.815982
	 B(7,10,8)        =         1.902374	     108.998025
	 B(7,10,9)        =         1.901650	     108.956507
	 B(7,10,14)       =         1.935975	     110.923181
	 B(8,10,9)        =         1.907391	     109.285466
	 B(8,10,14)       =         1.907975	     109.318898
	 B(9,10,14)       =         1.908264	     109.335495
	 B(10,14,11)      =         1.927597	     110.443195
	 B(10,14,12)      =         1.915869	     109.771206
	 B(10,14,13)      =         1.915431	     109.746089
	 B(11,14,12)      =         1.901070	     108.923294
	 B(11,14,13)      =         1.900960	     108.916979
	 B(12,14,13)      =         1.902608	     109.011409
	 D(1,4,7,5)       =        -2.269085	    -130.008969
	 D(1,4,7,6)       =        -0.180699	     -10.353308
	 D(1,4,7,10)      =         1.917018	     109.837050
	 D(2,4,7,5)       =        -0.172735	      -9.896972
	 D(2,4,7,6)       =         1.915650	     109.758688
	 D(2,4,7,10)      =        -2.269817	    -130.050953
	 D(3,4,7,5)       =         1.921725	     110.106709
	 D(3,4,7,6)       =        -2.273075	    -130.237630
	 D(3,4,7,10)      =        -0.175358	     -10.047272
	 D(4,7,10,8)      =        -1.039517	     -59.559930
	 D(4,7,10,9)      =         1.040604	      59.622242
	 D(4,7,10,14)     =        -3.141103	    -179.971957
	 D(5,7,10,8)      =         3.139764	     179.895216
	 D(5,7,10,9)      =        -1.063300	     -60.922611
	 D(5,7,10,14)     =         1.038178	      59.483190
	 D(6,7,10,8)      =         1.065158	      61.029035
	 D(6,7,10,9)      =        -3.137906	    -179.788792
	 D(6,7,10,14)     =        -1.036429	     -59.382991
	 D(7,10,14,11)    =        -3.141320	    -179.984375
	 D(7,10,14,12)    =         1.045427	      59.898547
	 D(7,10,14,13)    =        -1.045298	     -59.891181
	 D(8,10,14,11)    =         1.043606	      59.794245
	 D(8,10,14,12)    =        -1.052832	     -60.322833
	 D(8,10,14,13)    =         3.139628	     179.887439
	 D(9,10,14,11)    =        -1.043773	     -59.803804
	 D(9,10,14,12)    =        -3.140212	    -179.920882
	 D(9,10,14,13)    =         1.052248	      60.289391

	Current energy   :      -158.1556146026

	Energy change for the previous step:
		Projected    :        -0.0047608598
		Actual       :        -0.0030971569

	Performing BFGS update.
	Previous computed or guess Hessian on step 1.
	Steps to be used in Hessian update: 1
	Adding user-defined constraint: Fragment 1; Coordinate 46:
		Value =    -0.175358; Fixed value    =    -0.174530
		Force =     0.000435; Force constant =     0.525000
	Removing off-diagonal coupling between coordinate 46 and others.
	Taking RFO optimization step.
	Going to follow RFO solution 1.
	Using RFO vector 1.

	Determining step-restricting scale parameter for RS-RFO.
	Maximum step size allowed    0.10000

	 Iter      |step|        alpha        rfo_root  
	------------------------------------------------
	    0     0.16212       1.00000           1
	    1     0.13155       7.28909           1
	    2     0.10971      17.63158           1
	    3     0.10136      24.08406           1
	    4     0.10003      25.30217           1
	    5     0.10000      25.33338           1
	------------------------------------------------
	Norm of target step-size    0.10000
	Projected energy change by RFO approximation:        -0.0018112201

	Back-transformation to cartesian coordinates...
	Successfully converged to displaced geometry.

	--- Internal Coordinate Step in ANG or DEG, aJ/ANG or AJ/DEG ---
	 ---------------------------------------------------------------------------
	   Coordinate                Previous        Force       Change         New 
	   ----------                --------       ------       ------       ------
	    1 R(1,4)          =      1.080861     0.029496     0.005279     1.086140
	    2 R(2,4)          =      1.081294     0.027543     0.004885     1.086179
	    3 R(3,4)          =      1.080880     0.034185     0.006362     1.087241
	    4 R(4,7)          =      1.545285    -0.019116    -0.007003     1.538283
	    5 R(5,7)          =      1.081875     0.035009     0.006427     1.088302
	    6 R(6,7)          =      1.081606     0.035961     0.006593     1.088199
	    7 R(7,10)         =      1.530213    -0.040224    -0.009793     1.520419
	    8 R(8,10)         =      1.082438     0.038883     0.007128     1.089567
	    9 R(9,10)         =      1.082130     0.038220     0.007017     1.089147
	   10 R(10,14)        =      1.532807    -0.040363    -0.010748     1.522058
	   11 R(11,14)        =      1.081828     0.031039     0.005363     1.087191
	   12 R(12,14)        =      1.081375     0.034120     0.006206     1.087581
	   13 R(13,14)        =      1.081525     0.033453     0.006104     1.087629
	   14 B(1,4,2)        =    108.578253    -0.000213    -0.795310   107.782942
	   15 B(1,4,3)        =    108.703632    -0.000200    -0.961664   107.741969
	   16 B(1,4,7)        =    110.346116     0.000215     0.840864   111.186981
	   17 B(2,4,3)        =    108.707075    -0.000179    -0.666983   108.040092
	   18 B(2,4,7)        =    110.527904     0.000238     1.002912   111.530816
	   19 B(3,4,7)        =    109.929395     0.000123     0.478874   110.408269
	   20 B(4,7,5)        =    109.461108     0.000005     0.287028   109.748136
	   21 B(4,7,6)        =    109.489054    -0.000008     0.249055   109.738109
	   22 B(4,7,10)       =    111.057654     0.000301     1.132131   112.189785
	   23 B(5,7,6)        =    109.185987    -0.000094    -1.217935   107.968052
	   24 B(5,7,10)       =    108.801368    -0.000107    -0.315982   108.485386
	   25 B(6,7,10)       =    108.815982    -0.000104    -0.208962   108.607020
	   26 B(7,10,8)       =    108.998025    -0.000076    -0.139085   108.858940
	   27 B(7,10,9)       =    108.956507    -0.000092    -0.233124   108.723383
	   28 B(7,10,14)      =    110.923181     0.000282     1.073079   111.996260
	   29 B(8,10,9)       =    109.285466    -0.000077    -1.108337   108.177129
	   30 B(8,10,14)      =    109.318898    -0.000025     0.158900   109.477798
	   31 B(9,10,14)      =    109.335495    -0.000015     0.190230   109.525725
	   32 B(10,14,11)     =    110.443195     0.000209     0.838260   111.281455
	   33 B(10,14,12)     =    109.771206     0.000125     0.595036   110.366242
	   34 B(10,14,13)     =    109.746089     0.000117     0.568966   110.315055
	   35 B(11,14,12)     =    108.923294    -0.000157    -0.654547   108.268747
	   36 B(11,14,13)     =    108.916979    -0.000153    -0.643359   108.273621
	   37 B(12,14,13)     =    109.011409    -0.000149    -0.767852   108.243557
	   38 D(1,4,7,5)      =   -130.008969     0.000004     0.107354  -129.901614
	   39 D(1,4,7,6)      =    -10.353308    -0.000023    -1.056512   -11.409820
	   40 D(1,4,7,10)     =    109.837050    -0.000010    -0.419232   109.417818
	   41 D(2,4,7,5)      =     -9.896972     0.000010     0.329976    -9.566996
	   42 D(2,4,7,6)      =    109.758688    -0.000017    -0.833890   108.924798
	   43 D(2,4,7,10)     =   -130.050953    -0.000004    -0.196610  -130.247563
	   44 D(3,4,7,5)      =    110.106709     0.000012     0.458620   110.565329
	   45 D(3,4,7,6)      =   -130.237630    -0.000015    -0.705247  -130.942877
[...]
  CGR           5          0          1   1.190E-04
  CGR           6          0          1   2.228E-05
  CGR           7          0          1   4.076E-06
  CGR           8          0          1   1.025E-06
  CGR           9          1          0   2.631E-07

    CGRSolver converged.

  ==> DFCorrGrad: Density-Fitted Correlated Gradients <==

    OpenMP threads:              1
    Integrals threads:           1
    Memory (MB):              3576
    Schwarz Cutoff:          0E+00
    Fitting Condition:       1E-12

   => Auxiliary Basis Set <=

  Basis Set: (AUG-CC-PVTZ AUX)
    Blend: AUG-CC-PVTZ-JKFIT
    Number of shells: 260
    Number of basis function: 876
    Number of Cartesian functions: 1074
    Spherical Harmonics?: true
    Max angular momentum: 4

	-----------------------------------------------------------
	 ==================> DF-MP2 Energies <==================== 
	-----------------------------------------------------------
	 Reference Energy          =    -157.3516721106664704 [Eh]
	 Singles Energy            =      -0.0000000000000001 [Eh]
	 Same-Spin Energy          =      -0.1654503042768445 [Eh]
	 Opposite-Spin Energy      =      -0.6398491986850041 [Eh]
	 Correlation Energy        =      -0.8052995029618487 [Eh]
	 Total Energy              =    -158.1569716136283148 [Eh]
	-----------------------------------------------------------
	 ================> DF-SCS-MP2 Energies <================== 
	-----------------------------------------------------------
	 SCS Same-Spin Scale       =       0.3333333333333333 [-]
	 SCS Opposite-Spin Scale   =       1.2000000000000000 [-]
	 SCS Same-Spin Energy      =      -0.0551501014256148 [Eh]
	 SCS Opposite-Spin Energy  =      -0.7678190384220049 [Eh]
	 SCS Correlation Energy    =      -0.8229691398476199 [Eh]
	 SCS Total Energy          =    -158.1746412505140995 [Eh]
	-----------------------------------------------------------


  -Total Gradient:
     Atom            X                  Y                   Z
    ------   -----------------  -----------------  -----------------
       1        0.000025494458     0.000009860672    -0.000027416004
       2       -0.000000350738    -0.000017118418    -0.000016576053
       3       -0.000459595235    -0.000611673984     0.001803044971
       4        0.000709727532     0.000855585416    -0.002743333888
       5       -0.000013036368     0.000007252639     0.000029774697
       6        0.000014057949    -0.000011596625    -0.000003854112
       7       -0.000627628079    -0.000448691251     0.002335164405
       8       -0.000004969179     0.000010106258    -0.000017638985
       9       -0.000005435407    -0.000011837421     0.000016486106
      10        0.000372163569     0.000215650874    -0.001361029994
      11       -0.000001318826     0.000016388314     0.000000057703
      12       -0.000000882979    -0.000003792090    -0.000013348673
      13       -0.000002298550    -0.000008718714     0.000015462690
      14       -0.000005928146    -0.000001415670    -0.000016792864


*** tstop() called on gpu-2-10.local at Wed Jun 14 14:51:10 2017
Module time:
	user time   =     280.89 seconds =       4.68 minutes
	system time =       3.81 seconds =       0.06 minutes
	total time  =        284 seconds =       4.73 minutes
Total time:
	user time   =    1763.92 seconds =      29.40 minutes
	system time =      23.66 seconds =       0.39 minutes
	total time  =       1788 seconds =      29.80 minutes

			-----------------------------------------
			 OPTKING 2.0: for geometry optimizations 
			  - R.A. King,  Bethel University        
			-----------------------------------------

	Previous internal coordinate definitions found.
	---Fragment 1 Geometry and Gradient---
	 H          -4.5685513098        1.6508470298        0.9648446602
	 H          -3.8143924478        2.7727423769       -2.0597441129
	 H          -3.9331537323       -0.4958744850       -1.4559378398
	 C          -3.3746231707        1.3229448280       -0.6747070380
	 H           0.4890631707        2.5346360512       -1.2258956610
	 H          -0.3137470339        2.0842386749        1.9350217477
	 C          -0.5725260565        1.3083840980        0.0448586766
	 H          -0.4722853497       -2.5718589382        1.1777673639
	 H           0.3801056285       -2.0528514667       -1.9710890429
	 C           0.5915911692       -1.3106558573       -0.0595936622
	 H           4.1656255231       -3.2065691808        0.5858541156
	 H           3.5931454252       -0.6319868621        2.6127026612
	 H           4.4488574815       -0.0935896088       -0.5516664892
	 C           3.3576856308       -1.3198108402        0.6884461746
	             0.0000254945        0.0000098607       -0.0000274160
	            -0.0000003507       -0.0000171184       -0.0000165761
	            -0.0004595952       -0.0006116740        0.0018030450
	             0.0007097275        0.0008555854       -0.0027433339
	            -0.0000130364        0.0000072526        0.0000297747
	             0.0000140579       -0.0000115966       -0.0000038541
	            -0.0006276281       -0.0004486913        0.0023351644
	            -0.0000049692        0.0000101063       -0.0000176390
	            -0.0000054354       -0.0000118374        0.0000164861
	             0.0003721636        0.0002156509       -0.0013610300
	            -0.0000013188        0.0000163883        0.0000000577
	            -0.0000008830       -0.0000037921       -0.0000133487
	            -0.0000022985       -0.0000087187        0.0000154627
	            -0.0000059281       -0.0000014157       -0.0000167929

	---Fragment 1 Intrafragment Coordinates---
	 - Coordinate -           - BOHR/RAD -       - ANG/DEG -
	 R(1,4)           =         2.054535	       1.087213
	 R(2,4)           =         2.052715	       1.086250
	 R(3,4)           =         2.056789	       1.088406
	 R(4,7)           =         2.893049	       1.530936
	 R(5,7)           =         2.060457	       1.090347
	 R(6,7)           =         2.059523	       1.089852
	 R(7,10)          =         2.868004	       1.517683
	 R(8,10)          =         2.062408	       1.091380
	 R(9,10)          =         2.061406	       1.090849
	 R(10,14)         =         2.865471	       1.516342
	 R(11,14)         =         2.055030	       1.087475
	 R(12,14)         =         2.057014	       1.088525
	 R(13,14)         =         2.057220	       1.088634
	 B(1,4,2)         =         1.876778	     107.531431
	 B(1,4,3)         =         1.861304	     106.644877
	 B(1,4,7)         =         1.944610	     111.417925
	 B(2,4,3)         =         1.886099	     108.065528
	 B(2,4,7)         =         1.959381	     112.264250
	 B(3,4,7)         =         1.931614	     110.673304
	 B(4,7,5)         =         1.920513	     110.037303
	 B(4,7,6)         =         1.926311	     110.369495
	 B(4,7,10)        =         1.969989	     112.872076
	 B(5,7,6)         =         1.851554	     106.086258
	 B(5,7,10)        =         1.887973	     108.172890
	 B(6,7,10)        =         1.903329	     109.052710
	 B(7,10,8)        =         1.904141	     109.099244
	 B(7,10,9)        =         1.897495	     108.718449
	 B(7,10,14)       =         1.966255	     112.658093
	 B(8,10,9)        =         1.857960	     106.453281
	 B(8,10,14)       =         1.917051	     109.838927
	 B(9,10,14)       =         1.917663	     109.874016
	 B(10,14,11)      =         1.949179	     111.679754
	 B(10,14,12)      =         1.932249	     110.709723
	 B(10,14,13)      =         1.931301	     110.655371
	 B(11,14,12)      =         1.884620	     107.980749
	 B(11,14,13)      =         1.884543	     107.976357
	 B(12,14,13)      =         1.879560	     107.690869
	 D(1,4,7,5)       =        -2.282876	    -130.799159
	 D(1,4,7,6)       =        -0.245289	     -14.054012
	 D(1,4,7,10)      =         1.889486	     108.259600
	 D(2,4,7,5)       =        -0.176625	     -10.119883
	 D(2,4,7,6)       =         1.860962	     106.625264
	 D(2,4,7,10)      =        -2.287448	    -131.061124
	 D(3,4,7,5)       =         1.932416	     110.719285
	 D(3,4,7,6)       =        -2.313182	    -132.535569
	 D(3,4,7,10)      =        -0.178407	     -10.221957
	 D(4,7,10,8)      =        -0.994417	     -56.975919
	 D(4,7,10,9)      =         1.025086	      58.733096
	 D(4,7,10,14)     =        -3.128222	    -179.233945
	 D(5,7,10,8)      =        -3.123657	    -178.972356
	 D(5,7,10,9)      =        -1.104154	     -63.263341
	 D(5,7,10,14)     =         1.025723	      58.769618
	 D(6,7,10,8)      =         1.153193	      66.073093
	 D(6,7,10,9)      =        -3.110489	    -178.217892
	 D(6,7,10,14)     =        -0.980612	     -56.184933
	 D(7,10,14,11)    =        -3.132088	    -179.455433
	 D(7,10,14,12)    =         1.050411	      60.184103
	 D(7,10,14,13)    =        -1.032146	     -59.137582
	 D(8,10,14,11)    =         1.024582	      58.704212
	 D(8,10,14,12)    =        -1.076105	     -61.656252
	 D(8,10,14,13)    =         3.124524	     179.022063
	 D(9,10,14,11)    =        -1.013642	     -58.077433
	 D(9,10,14,12)    =        -3.114329	    -178.437897
	 D(9,10,14,13)    =         1.086300	      62.240418

	Current energy   :      -158.1569716136

	Energy change for the previous step:
		Projected    :        -0.0000016866
		Actual       :        -0.0000015587

	Performing BFGS update.
	Previous computed or guess Hessian on step 1.
	Steps to be used in Hessian update: 5 4
	Adding user-defined constraint: Fragment 1; Coordinate 46:
		Value =    -0.178407; Fixed value    =    -0.174530
		Force =     0.002423; Force constant =     0.625000
	Removing off-diagonal coupling between coordinate 46 and others.
	Taking RFO optimization step.
	Going to follow RFO solution 1.
	Rejecting RFO root 1 because normalization gives large value.
	Rejecting RFO root 2 because normalization gives large value.
	Using RFO vector 3.
	Norm of target step-size    0.00186
	Projected energy change by RFO approximation:        -0.0000001183

	Back-transformation to cartesian coordinates...
	Successfully converged to displaced geometry.

	--- Internal Coordinate Step in ANG or DEG, aJ/ANG or AJ/DEG ---
	 ---------------------------------------------------------------------------
	   Coordinate                Previous        Force       Change         New 
	   ----------                --------       ------       ------       ------
	    1 R(1,4)          =      1.087213     0.000289     0.000053     1.087266
	    2 R(2,4)          =      1.086250     0.000007     0.000009     1.086259
	    3 R(3,4)          =      1.088406     0.000158     0.000034     1.088439
	    4 R(4,7)          =      1.530936     0.000170     0.000018     1.530953
	    5 R(5,7)          =      1.090347     0.000171     0.000031     1.090378
	    6 R(6,7)          =      1.089852     0.000051     0.000013     1.089866
	    7 R(7,10)         =      1.517683     0.000040    -0.000004     1.517678
	    8 R(8,10)         =      1.091380     0.000117     0.000025     1.091405
	    9 R(9,10)         =      1.090849     0.000086     0.000019     1.090868
	   10 R(10,14)        =      1.516342     0.000115     0.000005     1.516347
	   11 R(11,14)        =      1.087475     0.000128     0.000027     1.087503
	   12 R(12,14)        =      1.088525     0.000114     0.000028     1.088553
	   13 R(13,14)        =      1.088634     0.000130     0.000029     1.088663
	   14 B(1,4,2)        =    107.531431    -0.000000    -0.002460   107.528971
	   15 B(1,4,3)        =    106.644877    -0.000001    -0.008312   106.636565
	   16 B(1,4,7)        =    111.417925     0.000000    -0.004420   111.413505
	   17 B(2,4,3)        =    108.065528     0.000001     0.011370   108.076897
	   18 B(2,4,7)        =    112.264250    -0.000000     0.003143   112.267393
	   19 B(3,4,7)        =    110.673304     0.000000     0.000481   110.673785
	   20 B(4,7,5)        =    110.037303     0.000000     0.008341   110.045644
	   21 B(4,7,6)        =    110.369495    -0.000001    -0.016477   110.353018
	   22 B(4,7,10)       =    112.872076     0.000001     0.000671   112.872746
	   23 B(5,7,6)        =    106.086258     0.000001     0.006837   106.093095
	   24 B(5,7,10)       =    108.172890    -0.000002    -0.006120   108.166770
	   25 B(6,7,10)       =    109.052710     0.000001     0.007362   109.060071
	   26 B(7,10,8)       =    109.099244     0.000001     0.004539   109.103783
	   27 B(7,10,9)       =    108.718449    -0.000001    -0.002992   108.715457
	   28 B(7,10,14)      =    112.658093     0.000000    -0.002207   112.655886
	   29 B(8,10,9)       =    106.453281     0.000001     0.007236   106.460518
	   30 B(8,10,14)      =    109.838927    -0.000001    -0.006746   109.832181
	   31 B(9,10,14)      =    109.874016     0.000000     0.000781   109.874797
	   32 B(10,14,11)     =    111.679754    -0.000000    -0.003325   111.676428
	   33 B(10,14,12)     =    110.709723     0.000000     0.002698   110.712421
	   34 B(10,14,13)     =    110.655371    -0.000001    -0.002883   110.652488
	   35 B(11,14,12)     =    107.980749     0.000000     0.000166   107.980916
	   36 B(11,14,13)     =    107.976357     0.000000     0.001403   107.977760
	   37 B(12,14,13)     =    107.690869     0.000000     0.002172   107.693042
	   38 D(1,4,7,5)      =   -130.799159    -0.000000    -0.014600  -130.813758
	   39 D(1,4,7,6)      =    -14.054012    -0.000000    -0.011060   -14.065073
	   40 D(1,4,7,10)     =    108.259600     0.000000    -0.013148   108.246452
	   41 D(2,4,7,5)      =    -10.119883    -0.000000    -0.018701   -10.138583
	   42 D(2,4,7,6)      =    106.625264    -0.000000    -0.015162   106.610102
	   43 D(2,4,7,10)     =   -131.061124     0.000000    -0.017249  -131.078374
	   44 D(3,4,7,5)      =    110.719285     0.000000    -0.001673   110.717612
	   45 D(3,4,7,6)      =   -132.535569     0.000000     0.001866  -132.533703
	   46 D(3,4,7,10)     =    -10.221957     0.000000    -0.000221   -10.222178
	   47 D(4,7,10,8)     =    -56.975919    -0.000000    -0.005719   -56.981637
	   48 D(4,7,10,9)     =     58.733096     0.000000     0.003714    58.736810
	   49 D(4,7,10,14)    =   -179.233945     0.000000     0.001139  -179.232806
	   50 D(5,7,10,8)     =   -178.972356    -0.000000    -0.012410  -178.984766
	   51 D(5,7,10,9)     =    -63.263341     0.000000    -0.002977   -63.266319
	   52 D(5,7,10,14)    =     58.769618     0.000000    -0.005552    58.764065
	   53 D(6,7,10,8)     =     66.073093    -0.000000    -0.021060    66.052034
	   54 D(6,7,10,9)     =   -178.217892     0.000000    -0.011627  -178.229519
	   55 D(6,7,10,14)    =    -56.184933     0.000000    -0.014202   -56.199135
	   56 D(7,10,14,11)   =   -179.455433     0.000000    -0.027539  -179.482972
	   57 D(7,10,14,12)   =     60.184103     0.000000    -0.027359    60.156744
	   58 D(7,10,14,13)   =    -59.137582     0.000000    -0.029949   -59.167531
	   59 D(8,10,14,11)   =     58.704212     0.000000    -0.027020    58.677192
	   60 D(8,10,14,12)   =    -61.656252    -0.000000    -0.026840   -61.683092
	   61 D(8,10,14,13)   =    179.022063    -0.000000    -0.029431   178.992633
	   62 D(9,10,14,11)   =    -58.077433    -0.000000    -0.032306   -58.109739
	   63 D(9,10,14,12)   =   -178.437897    -0.000000    -0.032126  -178.470023
	   64 D(9,10,14,13)   =     62.240418    -0.000000    -0.034716    62.205702
	 ---------------------------------------------------------------------------
	Successfully symmetrized geometry.
	 Forces used to impose fixed constraints are not included.
	  Forces zeroed: 46 

  ==> Convergence Check <==

  Measures of convergence in internal coordinates in au.
  Criteria marked as inactive (o), active & met (*), and active & unmet ( ).
  ---------------------------------------------------------------------------------------------
   Step     Total Energy     Delta E     MAX Force     RMS Force      MAX Disp      RMS Disp   
  ---------------------------------------------------------------------------------------------
    Convergence Criteria    1.00e-06 *    3.00e-04 *             o    1.20e-03 *             o
  ---------------------------------------------------------------------------------------------
      6    -158.15697161   -1.56e-06      3.51e-05 *    1.07e-05 o    6.06e-04 *    2.33e-04 o  ~
  ---------------------------------------------------------------------------------------------


  **** Optimization is complete! (in 6 steps) ****

  ==> Optimization Summary <==

  Measures of convergence in internal coordinates in au.
  --------------------------------------------------------------------------------------------------------------- ~
   Step         Total Energy             Delta E       MAX Force       RMS Force        MAX Disp        RMS Disp  ~
  --------------------------------------------------------------------------------------------------------------- ~
      1    -158.152517445745   -158.152517445745      0.01317736      0.00568272      0.02716765      0.01251047  ~
      2    -158.155614602596     -0.003097156852      0.00489914      0.00237067      0.03014770      0.01252800  ~
      3    -158.156699997917     -0.001085395321      0.00176190      0.00069206      0.04326557      0.01251559  ~
      4    -158.156955877259     -0.000255879342      0.00098658      0.00018884      0.01462279      0.00457833  ~
      5    -158.156970054964     -0.000014177705      0.00011543      0.00003138      0.00326386      0.00108509  ~
      6    -158.156971613628     -0.000001558665      0.00003512      0.00001118      0.00060592      0.00023293  ~
  --------------------------------------------------------------------------------------------------------------- ~

	Writing optimization data to binary file.
	Final energy is   -158.1569716136283
	Final (previous) structure:
	Cartesian Geometry (in Angstrom)
	    H    -2.4175732294   0.8735906230   0.5105738040
	    H    -2.0184895480   1.4672720712  -1.0899696401
	    H    -2.0813353130  -0.2624054758  -0.7704491220
	    C    -1.7857736695   0.7000722512  -0.3570395870
	    H     0.2588010835   1.3412716304  -0.6487160439
	    H    -0.1660277796   1.1029316040   1.0239694070
	    C    -0.3029677404   0.6923670448   0.0237381893
	    H    -0.2499226430  -1.3609691338   0.6232476460
	    H     0.2011432354  -1.0863222088  -1.0430553976
	    C     0.3130565635  -0.6935692080  -0.0315356078
	    H     2.2043540863  -1.6968433283   0.3100206455
	    H     1.9014106662  -0.3344330435   1.3825827011
	    H     2.3542339835  -0.0495254879  -0.2919293328
	    C     1.7768107094  -0.6984138163   0.3643100249
	Saving final (previous) structure.
			--------------------------
			 OPTKING Finished Execution 
			--------------------------

    Final optimized geometry and variables:
    Molecular point group: c1
    Full point group: C1

    Geometry (in Angstrom), charge = 0, multiplicity = 1:

    H           -2.417573229412     0.873590623024     0.510573804015
    H           -2.018489548013     1.467272071168    -1.089969640093
    H           -2.081335313029    -0.262405475800    -0.770449121969
    C           -1.785773669521     0.700072251225    -0.357039586965
    H            0.258801083508     1.341271630388    -0.648716043909
    H           -0.166027779590     1.102931604029     1.023969407009
    C           -0.302967740439     0.692367044755     0.023738189285
    H           -0.249922642986    -1.360969133816     0.623247646015
    H            0.201143235449    -1.086322208796    -1.043055397616
    C            0.313056563533    -0.693569207972    -0.031535607802
    H            2.204354086341    -1.696843328254     0.310020645518
    H            1.901410666160    -0.334433043532     1.382582701139
    H            2.354233983492    -0.049525487937    -0.291929332841
    C            1.776810709445    -0.698413816261     0.364310024921

	Cleaning optimization helper files.

*** Psi4 exiting successfully. Buy a developer a beer!
