
    -----------------------------------------------------------------------
          Psi4: An Open-Source Ab Initio Electronic Structure Package
                               Psi4 1.1 release

                         Git: Rev {HEAD} add49b9 


    R. M. Parrish, L. A. Burns, D. G. A. Smith, A. C. Simmonett,
    A. E. DePrince III, E. G. Hohenstein, U. Bozkaya, A. Yu. Sokolov,
    R. Di Remigio, R. M. Richard, J. F. Gonthier, A. M. James,
    H. R. McAlexander, A. Kumar, M. Saitow, X. Wang, B. P. Pritchard,
    P. Verma, H. F. Schaefer III, K. Patkowski, R. A. King, E. F. Valeev,
    F. A. Evangelista, J. M. Turney, T. D. Crawford, and C. D. Sherrill,
    J. Chem. Theory Comput. in press (2017).
    (doi: 10.1021/acs.jctc.7b00174)

    -----------------------------------------------------------------------


    Psi4 started on: Wednesday, 14 June 2017 02:23PM

    Process ID:  26801
    PSIDATADIR: /cbio/jclab/home/chayas/anaconda/envs/py35/share/psi4
    Memory:     500.0 MiB
    Threads:    1
    
  ==> Input File <==

--------------------------------------------------------------------------

memory 1000 mb

molecule butane {
  symmetry C1
  0 1 
  H      1.878   0.945   -9.687
  H      2.283   2.645   -9.673
  H      3.218   1.532   -10.642
  C      2.680   1.652   -9.726
  H      4.433   2.124   -8.577
  H      3.094   1.537   -7.620
  C      3.631   1.416   -8.537
  H      3.665   -0.647   -7.940
  H      4.104   -0.384   -9.610
  C      4.203   -0.012   -8.612
  H      6.088   -0.983   -8.270
  H      5.791   0.381   -7.220
  H      6.230   0.644   -8.890
  C      5.691   0.009   -8.218
  units Angstrom
}

dih_string = "14 10 7 4 140"
set optking fixed_dihedral = $dih_string

optimize('MP2/aug-cc-pvtz')
--------------------------------------------------------------------------

  Memory set to 953.674 MiB by Python driver.
gradient() will perform analytic gradient computation.

*** tstart() called on cpu-6-2.local
*** at Wed Jun 14 14:23:02 2017

    SCF Algorithm Type (re)set to DF.

*** tstart() called on cpu-6-2.local
*** at Wed Jun 14 14:23:02 2017

   => Loading Basis Set <=

    Name: AUG-CC-PVTZ
    Role: ORBITAL
    Keyword: BASIS
    atoms 1-3, 5-6, 8-9, 11-13 entry H          line    34 file /cbio/jclab/home/chayas/anaconda/envs/py35/share/psi4/basis/aug-cc-pvtz.gbs 
    atoms 4, 7, 10, 14         entry C          line   221 file /cbio/jclab/home/chayas/anaconda/envs/py35/share/psi4/basis/aug-cc-pvtz.gbs 


         ---------------------------------------------------------
                                   SCF
            by Justin Turney, Rob Parrish, and Andy Simmonett
                              RHF Reference
                        1 Threads,    953 MiB Core
         ---------------------------------------------------------

  ==> Geometry <==

    Molecular point group: c1
    Full point group: C1

    Geometry (in Angstrom), charge = 0, multiplicity = 1:

       Center              X                  Y                   Z               Mass       
    ------------   -----------------  -----------------  -----------------  -----------------
           H         -2.177961307498     0.176468096000    -0.906869582236     1.007825032070
           H         -1.772961307498     1.876468096000    -0.892869582236     1.007825032070
           H         -0.837961307498     0.763468096000    -1.861869582236     1.007825032070
           C         -1.375961307498     0.883468096000    -0.945869582236    12.000000000000
           H          0.377038692502     1.355468096000     0.203130417764     1.007825032070
           H         -0.961961307498     0.768468096000     1.160130417764     1.007825032070
           C         -0.424961307498     0.647468096000     0.243130417764    12.000000000000
           H         -0.390961307498    -1.415531904000     0.840130417764     1.007825032070
           H          0.048038692502    -1.152531904000    -0.829869582236     1.007825032070
           C          0.147038692502    -0.780531904000     0.168130417764    12.000000000000
           H          2.032038692502    -1.751531904000     0.510130417764     1.007825032070
           H          1.735038692502    -0.387531904000     1.560130417764     1.007825032070
           H          2.174038692502    -0.124531904000    -0.109869582236     1.007825032070
           C          1.635038692502    -0.759531904000     0.562130417764    12.000000000000

  Running in c1 symmetry.

  Rotational constants: A =      0.67200  B =      0.12769  C =      0.12284 [cm^-1]
  Rotational constants: A =  20146.13577  B =   3828.01891  C =   3682.71680 [MHz]
  Nuclear repulsion =  132.164921491973558

  Charge       = 0
  Multiplicity = 1
  Electrons    = 34
  Nalpha       = 17
  Nbeta        = 17

  ==> Algorithm <==

  SCF Algorithm Type is DF.
  DIIS enabled.
  MOM disabled.
  Fractional occupation disabled.
  Guess Type is SAD.
  Energy threshold   = 1.00e-10
  Density threshold  = 1.00e-10
  Integral threshold = 0.00e+00

  ==> Primary Basis <==

  Basis Set: AUG-CC-PVTZ
    Blend: AUG-CC-PVTZ
    Number of shells: 146
    Number of basis function: 414
    Number of Cartesian functions: 470
    Spherical Harmonics?: true
    Max angular momentum: 3

   => Loading Basis Set <=

    Name: (AUG-CC-PVTZ AUX)
    Role: JKFIT
    Keyword: DF_BASIS_SCF
    atoms 1-3, 5-6, 8-9, 11-13 entry H          line    69 file /cbio/jclab/home/chayas/anaconda/envs/py35/share/psi4/basis/aug-cc-pvtz-jkfit.gbs 
    atoms 4, 7, 10, 14         entry C          line   161 file /cbio/jclab/home/chayas/anaconda/envs/py35/share/psi4/basis/aug-cc-pvtz-jkfit.gbs 

  ==> Pre-Iterations <==

   -------------------------------------------------------
    Irrep   Nso     Nmo     Nalpha   Nbeta   Ndocc  Nsocc
   -------------------------------------------------------
     A        414     414       0       0       0       0
   -------------------------------------------------------
    Total     414     414      17      17      17       0
   -------------------------------------------------------

  ==> Integral Setup <==

  ==> DFJK: Density-Fitted J/K Matrices <==

    J tasked:                  Yes
    K tasked:                  Yes
    wK tasked:                  No
    OpenMP threads:              1
    Integrals threads:           1
    Memory (MB):               715
    Algorithm:                Core
    Integral Cache:           NONE
    Schwarz Cutoff:          1E-12
    Fitting Condition:       1E-12

   => Auxiliary Basis Set <=

  Basis Set: (AUG-CC-PVTZ AUX)
    Blend: AUG-CC-PVTZ-JKFIT
    Number of shells: 260
    Number of basis function: 876
    Number of Cartesian functions: 1074
    Spherical Harmonics?: true
    Max angular momentum: 4

  Minimum eigenvalue in the overlap matrix is 8.0612036628E-06.
  Using Symmetric Orthogonalization.

  SCF Guess: Superposition of Atomic Densities via on-the-fly atomic UHF.

  ==> Iterations <==

                           Total Energy        Delta E     RMS |[F,P]|

   @DF-RHF iter   0:  -159.09450530341041   -1.59095e+02   9.64387e-03 
   @DF-RHF iter   1:  -157.25743395655920    1.83707e+00   8.07363e-04 
   @DF-RHF iter   2:  -157.33933804320421   -8.19041e-02   2.26787e-04 DIIS
   @DF-RHF iter   3:  -157.34729983506966   -7.96179e-03   8.31190e-05 DIIS
   @DF-RHF iter   4:  -157.34817470990311   -8.74875e-04   2.01288e-05 DIIS
   @DF-RHF iter   5:  -157.34824384658057   -6.91367e-05   3.56305e-06 DIIS
   @DF-RHF iter   6:  -157.34824691048854   -3.06391e-06   6.15963e-07 DIIS
   @DF-RHF iter   7:  -157.34824698157442   -7.10859e-08   1.64095e-07 DIIS
   @DF-RHF iter   8:  -157.34824698558015   -4.00573e-09   3.79411e-08 DIIS
   @DF-RHF iter   9:  -157.34824698585200   -2.71854e-10   9.26878e-09 DIIS
   @DF-RHF iter  10:  -157.34824698587153   -1.95257e-11   1.94483e-09 DIIS
   @DF-RHF iter  11:  -157.34824698587332   -1.79057e-12   3.70687e-10 DIIS
   @DF-RHF iter  12:  -157.34824698587320    1.13687e-13   1.02284e-10 DIIS
   @DF-RHF iter  13:  -157.34824698587209    1.10845e-12   2.87438e-11 DIIS

  ==> Post-Iterations <==

    Orbital Energies (a.u.)
    -----------------------

    Doubly Occupied:                                                      

       1A    -11.205740     2A    -11.205135     3A    -11.199500  
       4A    -11.199394     5A     -1.071043     6A     -0.980711  
       7A     -0.863136     8A     -0.794283     9A     -0.643338  
      10A     -0.593105    11A     -0.585780    12A     -0.559541  
      13A     -0.512780    14A     -0.509431    15A     -0.469319  
      16A     -0.468604    17A     -0.441440  

    Virtual:                                                              

      18A      0.032224    19A      0.037545    20A      0.039452  
      21A      0.039925    22A      0.056996    23A      0.060399  
      24A      0.061006    25A      0.061774    26A      0.067216  
      27A      0.083604    28A      0.118194    29A      0.118296  
      30A      0.123407    31A      0.126970    32A      0.131709  
      33A      0.135005    34A      0.141380    35A      0.142975  
      36A      0.146141    37A      0.151720    38A      0.158483  
      39A      0.169166    40A      0.169958    41A      0.202808  
      42A      0.206568    43A      0.213885    44A      0.232478  
      45A      0.239246    46A      0.239290    47A      0.268476  
      48A      0.280798    49A      0.282406    50A      0.297432  
      51A      0.300887    52A      0.303823    53A      0.306271  
      54A      0.328682    55A      0.330600    56A      0.335742  
      57A      0.346290    58A      0.355821    59A      0.358483  
      60A      0.361017    61A      0.364638    62A      0.375954  
      63A      0.378071    64A      0.379473    65A      0.388143  
      66A      0.390451    67A      0.394794    68A      0.401723  
      69A      0.417043    70A      0.417784    71A      0.427835  
      72A      0.431358    73A      0.444990    74A      0.448548  
      75A      0.449814    76A      0.455165    77A      0.460765  
      78A      0.473128    79A      0.476817    80A      0.482021  
      81A      0.483516    82A      0.496953    83A      0.503268  
      84A      0.507356    85A      0.515940    86A      0.524561  
      87A      0.527627    88A      0.538604    89A      0.540128  
      90A      0.554346    91A      0.557791    92A      0.564946  
      93A      0.574158    94A      0.576955    95A      0.580129  
      96A      0.584173    97A      0.593774    98A      0.607455  
      99A      0.609651   100A      0.628811   101A      0.647579  
     102A      0.647813   103A      0.667523   104A      0.683896  
     105A      0.685135   106A      0.698341   107A      0.763144  
     108A      0.783053   109A      0.808732   110A      0.816625  
     111A      0.827199   112A      0.833487   113A      0.840874  
     114A      0.851857   115A      0.853842   116A      0.860148  
     117A      0.861130   118A      0.866100   119A      0.880302  
     120A      0.882298   121A      0.897124   122A      0.899026  
     123A      0.904092   124A      0.917664   125A      0.922195  
     126A      0.931149   127A      0.946418   128A      0.956142  
     129A      0.958078   130A      0.963449   131A      0.969750  
     132A      0.980972   133A      0.981133   134A      0.989786  
     135A      0.995935   136A      1.006060   137A      1.018198  
     138A      1.031641   139A      1.038980   140A      1.046876  
     141A      1.072752   142A      1.077833   143A      1.090640  
     144A      1.100045   145A      1.109288   146A      1.115162  
     147A      1.126454   148A      1.144242   149A      1.151274  
     150A      1.157929   151A      1.161299   152A      1.168844  
     153A      1.171172   154A      1.191611   155A      1.198404  
     156A      1.207449   157A      1.231810   158A      1.233664  
     159A      1.256585   160A      1.260568   161A      1.269731  
     162A      1.277691   163A      1.282677   164A      1.294964  
     165A      1.302397   166A      1.326802   167A      1.334153  
     168A      1.340980   169A      1.364550   170A      1.365937  
     171A      1.372114   172A      1.383494   173A      1.394523  
     174A      1.428540   175A      1.436941   176A      1.449490  
     177A      1.450252   178A      1.477077   179A      1.493154  
     180A      1.502275   181A      1.514206   182A      1.531675  
     183A      1.552223   184A      1.557579   185A      1.580977  
     186A      1.593892   187A      1.612258   188A      1.612955  
     189A      1.631918   190A      1.660454   191A      1.670905  
     192A      1.674409   193A      1.675999   194A      1.691026  
     195A      1.691371   196A      1.696972   197A      1.709863  
     198A      1.717322   199A      1.726007   200A      1.737767  
     201A      1.743260   202A      1.754626   203A      1.767665  
     204A      1.769937   205A      1.783168   206A      1.803526  
     207A      1.819523   208A      1.833097   209A      1.839313  
     210A      1.846882   211A      1.870593   212A      1.871722  
     213A      1.900421   214A      1.912453   215A      1.919451  
     216A      1.943831   217A      1.951208   218A      1.969746  
     219A      1.983624   220A      1.995537   221A      2.008895  
     222A      2.016442   223A      2.032985   224A      2.043310  
     225A      2.059745   226A      2.067250   227A      2.071092  
     228A      2.088615   229A      2.108204   230A      2.120236  
     231A      2.145281   232A      2.181962   233A      2.227859  
     234A      2.246685   235A      2.249722   236A      2.254656  
     237A      2.257897   238A      2.273768   239A      2.298872  
     240A      2.304847   241A      2.325384   242A      2.333007  
     243A      2.357750   244A      2.363140   245A      2.372834  
     246A      2.404870   247A      2.429324   248A      2.452224  
     249A      2.460290   250A      2.491123   251A      2.510088  
     252A      2.535786   253A      2.574029   254A      2.592400  
     255A      2.600103   256A      2.656147   257A      2.843361  
     258A      2.861889   259A      2.997136   260A      3.002852  
     261A      3.232004   262A      3.274560   263A      3.278274  
     264A      3.331102   265A      3.340256   266A      3.432293  
     267A      3.446887   268A      3.459907   269A      3.481706  
     270A      3.523149   271A      3.530308   272A      3.553870  
     273A      3.564278   274A      3.581715   275A      3.618723  
     276A      3.629438   277A      3.646070   278A      3.647383  
     279A      3.657816   280A      3.693813   281A      3.703433  
     282A      3.703977   283A      3.730024   284A      3.734404  
     285A      3.754454   286A      3.771485   287A      3.775203  
     288A      3.787298   289A      3.834299   290A      3.834827  
     291A      3.843392   292A      3.857994   293A      3.861552  
     294A      3.900164   295A      3.916678   296A      3.933619  
     297A      3.958378   298A      3.968774   299A      3.978141  
     300A      4.006045   301A      4.008967   302A      4.013209  
     303A      4.032021   304A      4.059524   305A      4.064355  
     306A      4.082209   307A      4.096826   308A      4.105857  
     309A      4.123512   310A      4.155184   311A      4.165161  
     312A      4.197489   313A      4.221555   314A      4.243987  
     315A      4.277382   316A      4.279343   317A      4.306389  
     318A      4.306990   319A      4.320455   320A      4.321614  
     321A      4.349638   322A      4.387941   323A      4.388170  
     324A      4.422179   325A      4.422696   326A      4.462177  
     327A      4.514574   328A      4.558387   329A      4.567866  
     330A      4.613266   331A      4.623559   332A      4.661763  
     333A      4.682309   334A      4.697679   335A      4.700628  
     336A      4.727128   337A      4.758008   338A      4.769458  
     339A      4.777657   340A      4.810031   341A      4.838583  
     342A      4.862510   343A      4.872255   344A      4.889015  
     345A      4.894060   346A      4.925416   347A      4.939632  
     348A      4.968257   349A      4.970996   350A      5.008244  
     351A      5.023124   352A      5.085916   353A      5.093727  
     354A      5.099114   355A      5.139465   356A      5.165449  
     357A      5.167780   358A      5.190760   359A      5.204843  
     360A      5.216508   361A      5.248059   362A      5.266348  
     363A      5.292089   364A      5.302992   365A      5.327091  
     366A      5.367623   367A      5.377408   368A      5.392697  
     369A      5.403693   370A      5.452547   371A      5.473333  
     372A      5.486986   373A      5.519029   374A      5.527549  
     375A      5.559043   376A      5.618821   377A      5.619545  
     378A      5.636008   379A      5.645671   380A      5.692954  
     381A      5.694528   382A      5.771087   383A      5.788852  
     384A      5.849374   385A      5.862338   386A      5.880573  
     387A      5.919101   388A      5.934306   389A      5.994571  
     390A      6.002525   391A      6.078099   392A      6.136790  
     393A      6.167389   394A      6.229450   395A      6.239764  
     396A      6.275443   397A      6.296681   398A      6.297221  
     399A      6.350400   400A      6.365539   401A      6.385654  
     402A      6.485431   403A      6.541600   404A      6.631056  
     405A      6.750746   406A      6.773716   407A      6.837333  
     408A      6.842220   409A      6.894973   410A      7.002592  
     411A     18.130100   412A     18.435901   413A     18.902447  
     414A     19.662018  

    Final Occupation by Irrep:
              A 
    DOCC [    17 ]

  Energy converged.

  @DF-RHF Final Energy:  -157.34824698587209

   => Energetics <=

    Nuclear Repulsion Energy =            132.1649214919735584
    One-Electron Energy =                -472.4217749548441816
    Two-Electron Energy =                 182.9086064769985001
    DFT Exchange-Correlation Energy =       0.0000000000000000
    Empirical Dispersion Energy =           0.0000000000000000
    PCM Polarization Energy =               0.0000000000000000
    EFP Energy =                            0.0000000000000000
    Total Energy =                       -157.3482469858720947



Properties will be evaluated at   0.000000,   0.000000,   0.000000 Bohr

Properties computed using the SCF density matrix

  Nuclear Dipole Moment: (a.u.)
     X:     0.2104      Y:     0.1019      Z:    -0.3072

  Electronic Dipole Moment: (a.u.)
     X:    -0.2253      Y:    -0.1097      Z:     0.3295

  Dipole Moment: (a.u.)
     X:    -0.0150      Y:    -0.0078      Z:     0.0223     Total:     0.0280

  Dipole Moment: (Debye)
     X:    -0.0381      Y:    -0.0198      Z:     0.0568     Total:     0.0712


*** tstop() called on cpu-6-2.local at Wed Jun 14 14:24:09 2017
Module time:
	user time   =      66.54 seconds =       1.11 minutes
	system time =       0.50 seconds =       0.01 minutes
	total time  =         67 seconds =       1.12 minutes
Total time:
	user time   =      66.55 seconds =       1.11 minutes
	system time =       0.50 seconds =       0.01 minutes
	total time  =         67 seconds =       1.12 minutes

  //>>>>>>>>>>>>>>>>>>>>>>>>>>>>>>>>>>>//
  //               DFMP2               //
  //<<<<<<<<<<<<<<<<<<<<<<<<<<<<<<<<<<<//

   => Loading Basis Set <=

    Name: (AUG-CC-PVTZ AUX)
    Role: RIFIT
    Keyword: DF_BASIS_MP2
    atoms 1-3, 5-6, 8-9, 11-13 entry H          line    29 file /cbio/jclab/home/chayas/anaconda/envs/py35/share/psi4/basis/aug-cc-pvtz-ri.gbs 
    atoms 4, 7, 10, 14         entry C          line   147 file /cbio/jclab/home/chayas/anaconda/envs/py35/share/psi4/basis/aug-cc-pvtz-ri.gbs 

	 --------------------------------------------------------
	                          DF-MP2                         
	      2nd-Order Density-Fitted Moller-Plesset Theory     
	              RMP2 Wavefunction,   1 Threads             
	                                                         
	        Rob Parrish, Justin Turney, Andy Simmonett,      
	           Ed Hohenstein, and C. David Sherrill          
	 --------------------------------------------------------

   => Auxiliary Basis Set <=

  Basis Set: (AUG-CC-PVTZ AUX)
    Blend: AUG-CC-PVTZ-RI
    Number of shells: 252
    Number of basis function: 884
    Number of Cartesian functions: 1094
    Spherical Harmonics?: true
    Max angular momentum: 4

	 --------------------------------------------------------
	                 NBF =   414, NAUX =   884
	 --------------------------------------------------------
	   CLASS    FOCC     OCC    AOCC    AVIR     VIR    FVIR
	   PAIRS       0      17      17     397     397       0
	 --------------------------------------------------------


         ------------------------------------------------------------
                                     CPHF                           
                                  Rob Parrish                       
         ------------------------------------------------------------

  ==> Geometry <==

    Molecular point group: c1
    Full point group: C1

    Geometry (in Angstrom), charge = 0, multiplicity = 1:

       Center              X                  Y                   Z               Mass       
    ------------   -----------------  -----------------  -----------------  -----------------
           H         -2.177961307498     0.176468096000    -0.906869582236     1.007825032070
           H         -1.772961307498     1.876468096000    -0.892869582236     1.007825032070
           H         -0.837961307498     0.763468096000    -1.861869582236     1.007825032070
           C         -1.375961307498     0.883468096000    -0.945869582236    12.000000000000
           H          0.377038692502     1.355468096000     0.203130417764     1.007825032070
           H         -0.961961307498     0.768468096000     1.160130417764     1.007825032070
           C         -0.424961307498     0.647468096000     0.243130417764    12.000000000000
           H         -0.390961307498    -1.415531904000     0.840130417764     1.007825032070
           H          0.048038692502    -1.152531904000    -0.829869582236     1.007825032070
           C          0.147038692502    -0.780531904000     0.168130417764    12.000000000000
           H          2.032038692502    -1.751531904000     0.510130417764     1.007825032070
           H          1.735038692502    -0.387531904000     1.560130417764     1.007825032070
           H          2.174038692502    -0.124531904000    -0.109869582236     1.007825032070
           C          1.635038692502    -0.759531904000     0.562130417764    12.000000000000

  Nuclear repulsion =  132.164921491973558
  Reference energy  = -157.348246985872095

  ==> Basis Set <==

  Basis Set: AUG-CC-PVTZ
    Blend: AUG-CC-PVTZ
    Number of shells: 146
    Number of basis function: 414
    Number of Cartesian functions: 470
    Spherical Harmonics?: true
    Max angular momentum: 3

  ==> CGRSolver (by Rob Parrish) <==

   Number of roots    =         1
   Preconditioning    =    JACOBI
   Convergence cutoff =     1E-06
   Maximum iterations =       100

  ==> CPHFRHamiltonian (by Rob Parrish) <== 

  ==> DFJK: Density-Fitted J/K Matrices <==

    J tasked:                  Yes
    K tasked:                  Yes
    wK tasked:                  No
    OpenMP threads:              1
    Integrals threads:           1
    Memory (MB):               715
    Algorithm:                Core
    Integral Cache:           NONE
    Schwarz Cutoff:          1E-12
    Fitting Condition:       1E-12

   => Auxiliary Basis Set <=

  Basis Set: (AUG-CC-PVTZ AUX)
    Blend: AUG-CC-PVTZ-JKFIT
    Number of shells: 260
    Number of basis function: 876
    Number of Cartesian functions: 1074
    Spherical Harmonics?: true
    Max angular momentum: 4

  ==> CPHF Iterations <==

  => Iterations <=

             Iter  Converged  Remaining    Residual
  CGR           1          0          1   8.224E-02
  CGR           2          0          1   1.326E-02
  CGR           3          0          1   3.401E-03
  CGR           4          0          1   8.321E-04
  CGR           5          0          1   1.425E-04
  CGR           6          0          1   3.174E-05
  CGR           7          0          1   6.739E-06
  CGR           8          0          1   1.391E-06
  CGR           9          1          0   2.169E-07

    CGRSolver converged.

  ==> DFCorrGrad: Density-Fitted Correlated Gradients <==

    OpenMP threads:              1
    Integrals threads:           1
    Memory (MB):               715
    Schwarz Cutoff:          0E+00
    Fitting Condition:       1E-12

   => Auxiliary Basis Set <=

  Basis Set: (AUG-CC-PVTZ AUX)
    Blend: AUG-CC-PVTZ-JKFIT
    Number of shells: 260
    Number of basis function: 876
    Number of Cartesian functions: 1074
    Spherical Harmonics?: true
    Max angular momentum: 4

	-----------------------------------------------------------
	 ==================> DF-MP2 Energies <==================== 
	-----------------------------------------------------------
	 Reference Energy          =    -157.3482469858720947 [Eh]
	 Singles Energy            =      -0.0000000000000000 [Eh]
	 Same-Spin Energy          =      -0.1654921778068094 [Eh]
	 Opposite-Spin Energy      =      -0.6395103666828557 [Eh]
	 Correlation Energy        =      -0.8050025444896650 [Eh]
	 Total Energy              =    -158.1532495303617623 [Eh]
	-----------------------------------------------------------
	 ================> DF-SCS-MP2 Energies <================== 
	-----------------------------------------------------------
	 SCS Same-Spin Scale       =       0.3333333333333333 [-]
	 SCS Opposite-Spin Scale   =       1.2000000000000000 [-]
	 SCS Same-Spin Energy      =      -0.0551640592689365 [Eh]
	 SCS Opposite-Spin Energy  =      -0.7674124400194268 [Eh]
	 SCS Correlation Energy    =      -0.8225764992883632 [Eh]
	 SCS Total Energy          =    -158.1708234851604686 [Eh]
	-----------------------------------------------------------


  -Total Gradient:
     Atom            X                  Y                   Z
    ------   -----------------  -----------------  -----------------
       1        0.009673890371     0.007319535035     0.001572530893
       2        0.006952396296    -0.010204764528     0.003028234801
       3       -0.004821169417     0.001164210708     0.011369405009
       4       -0.013248346428    -0.003130551374    -0.024136700464
       5       -0.008174948167    -0.008986466125    -0.001117057597
       6        0.004220293660    -0.004648708062    -0.011606896296
       7        0.011844056929     0.021064984403     0.026097450602
       8        0.007037998010     0.009935614413    -0.004895893513
       9        0.001878689037     0.006144443540     0.011086119988
      10       -0.021084953409    -0.025801421795    -0.012279887375
      11       -0.008595604995     0.010194898895    -0.000915664575
      12       -0.003248272820    -0.004250180738    -0.011093225788
      13       -0.007096665919    -0.006565803102     0.006467962463
      14        0.024662636853     0.007764208730     0.006423621855


*** tstop() called on cpu-6-2.local at Wed Jun 14 14:28:01 2017
Module time:
	user time   =     295.95 seconds =       4.93 minutes
	system time =       2.98 seconds =       0.05 minutes
	total time  =        299 seconds =       4.98 minutes
Total time:
	user time   =     295.96 seconds =       4.93 minutes
	system time =       2.98 seconds =       0.05 minutes
	total time  =        299 seconds =       4.98 minutes

			-----------------------------------------
			 OPTKING 2.0: for geometry optimizations 
			  - R.A. King,  Bethel University        
			-----------------------------------------

	Internal coordinates to be generated automatically.
	Detected frag 1 with atoms:  1 2 3 4 5 6 7 8 9 10 11 12 13 14
	---Fragment 1 Bond Connectivity---
	 1 : 4
	 2 : 4
	 3 : 4
	 4 : 1 2 3 7
	 5 : 7
	 6 : 7
	 7 : 4 5 6 10
	 8 : 10
	 9 : 10
	 10 : 7 8 9 14
	 11 : 14
	 12 : 14
	 13 : 14
	 14 : 10 11 12 13

	Assuming in current code that numbering for constraints corresponds to unified fragment.
	Fixed dihedral atom list: 
	    14    10     7     4
	---Fragment 1 Geometry and Gradient---
	 H          -4.1157503992        0.3334763726       -1.7137351487
	 H          -3.3504113154        3.5460107985       -1.6872789828
	 H          -1.5835173811        1.4427456126       -3.5184236056
	 C          -2.6001900406        1.6695127486       -1.7874344679
	 H           0.7124998703        2.5614634833        0.3838608588
	 H          -1.8178434216        1.4521942433        2.1923287680
	 C          -0.8030604882        1.2235373812        0.4594499041
	 H          -0.7388097997       -2.6749676309        1.5876164055
	 H           0.0907799726       -2.1779696580       -1.5682262364
	 C           0.2778628598       -1.4749915365        0.3177204442
	 H           3.8399966203       -3.3099156116        0.9640067816
	 H           3.2787479588       -0.7323291663        2.9482192212
	 H           4.1083377311       -0.2353311934       -0.2076234208
	 C           3.0897753455       -1.4353072877        1.0622725405
	             0.0096738904        0.0073195350        0.0015725309
	             0.0069523963       -0.0102047645        0.0030282348
	            -0.0048211694        0.0011642107        0.0113694050
	            -0.0132483464       -0.0031305514       -0.0241367005
	            -0.0081749482       -0.0089864661       -0.0011170576
	             0.0042202937       -0.0046487081       -0.0116068963
	             0.0118440569        0.0210649844        0.0260974506
	             0.0070379980        0.0099356144       -0.0048958935
	             0.0018786890        0.0061444435        0.0110861200
	            -0.0210849534       -0.0258014218       -0.0122798874
	            -0.0085956050        0.0101948989       -0.0009156646
	            -0.0032482728       -0.0042501807       -0.0110932258
	            -0.0070966659       -0.0065658031        0.0064679625
	             0.0246626369        0.0077642087        0.0064236219

	Previous optimization step data not found.  Starting new optimization.

	---Fragment 1 Intrafragment Coordinates---
	 - Coordinate -           - BOHR/RAD -       - ANG/DEG -
	 R(1,4)           =         2.021719	       1.069848
	 R(2,4)           =         2.023390	       1.070732
	 R(3,4)           =         2.020240	       1.069065
	 R(4,7)           =         2.911539	       1.540720
	 R(5,7)           =         2.023038	       1.070546
	 R(6,7)           =         2.021123	       1.069532
	 R(7,10)          =         2.910419	       1.540128
	 R(8,10)          =         2.021436	       1.069698
	 R(9,10)          =         2.021379	       1.069668
	 R(10,14)         =         2.909087	       1.539422
	 R(11,14)         =         2.021545	       1.069756
	 R(12,14)         =         2.021555	       1.069761
	 R(13,14)         =         2.022387	       1.070201
	 B(1,4,2)         =         1.910402	     109.457956
	 B(1,4,3)         =         1.911667	     109.530446
	 B(1,4,7)         =         1.910655	     109.472466
	 B(2,4,3)         =         1.910386	     109.457062
	 B(2,4,7)         =         1.909977	     109.433599
	 B(3,4,7)         =         1.910712	     109.475749
	 B(4,7,5)         =         1.909508	     109.406767
	 B(4,7,6)         =         1.911784	     109.537131
	 B(4,7,10)        =         1.911007	     109.492647
	 B(5,7,6)         =         1.910656	     109.472548
	 B(5,7,10)        =         1.910432	     109.459710
	 B(6,7,10)        =         1.910411	     109.458493
	 B(7,10,8)        =         1.910303	     109.452301
	 B(7,10,9)        =         1.910824	     109.482155
	 B(7,10,14)       =         1.911213	     109.504437
	 B(8,10,9)        =         1.910417	     109.458846
	 B(8,10,14)       =         1.910766	     109.478806
	 B(9,10,14)       =         1.910276	     109.450772
	 B(10,14,11)      =         1.910943	     109.488965
	 B(10,14,12)      =         1.911204	     109.503926
	 B(10,14,13)      =         1.911557	     109.524173
	 B(11,14,12)      =         1.910410	     109.458432
	 B(11,14,13)      =         1.910054	     109.438058
	 B(12,14,13)      =         1.909629	     109.413709
	 D(1,4,7,5)       =        -3.141510	    -179.995288
	 D(1,4,7,6)       =        -1.047072	     -59.992819
	 D(1,4,7,10)      =         1.047986	      60.045148
	 D(2,4,7,5)       =        -1.047787	     -60.033789
	 D(2,4,7,6)       =         1.046651	      59.968680
	 D(2,4,7,10)      =        -3.141477	    -179.993353
	 D(3,4,7,5)       =         1.045952	      59.928621
	 D(3,4,7,6)       =         3.140390	     179.931091
	 D(3,4,7,10)      =        -1.047738	     -60.030943
	 D(4,7,10,8)      =        -1.745120	     -99.987982
	 D(4,7,10,9)      =         0.348926	      19.991973
	 D(4,7,10,14)     =         2.443356	     139.993976
	 D(5,7,10,8)      =         2.444942	     140.084880
	 D(5,7,10,9)      =        -1.744198	     -99.935165
	 D(5,7,10,14)     =         0.350232	      20.066838
	 D(6,7,10,8)      =         0.350778	      20.098091
	 D(6,7,10,9)      =         2.444823	     140.078045
	 D(6,7,10,14)     =        -1.743932	     -99.919951
	 D(7,10,14,11)    =         3.141408	     179.989448
	 D(7,10,14,12)    =         1.046747	      59.974196
	 D(7,10,14,13)    =        -1.047335	     -60.007849
	 D(8,10,14,11)    =         1.046982	      59.987626
	 D(8,10,14,12)    =        -1.047680	     -60.027626
	 D(8,10,14,13)    =         3.141424	     179.990329
	 D(9,10,14,11)    =        -1.047012	     -59.989345
	 D(9,10,14,12)    =         3.141512	     179.995403
	 D(9,10,14,13)    =         1.047431	      60.013359

	Current energy   :      -158.1532495304

	Generating empirical Hessian (Schlegel '84) for each fragment.
	Adding user-defined constraint: Fragment 1; Coordinate 49:
		Value =     2.443356; Fixed value    =     2.443461
		Force =     0.000053; Force constant =     0.500000
	Removing off-diagonal coupling between coordinate 49 and others.
	Taking RFO optimization step.
	Going to follow RFO solution 1.
	Using RFO vector 1.

	Determining step-restricting scale parameter for RS-RFO.
	Maximum step size allowed    0.10000

	 Iter      |step|        alpha        rfo_root  
	------------------------------------------------
	    0     0.21026       1.00000           1
	    1     0.16252       4.96684           1
	    2     0.12758      14.66823           1
	    3     0.10811      27.35902           1
	    4     0.10100      34.64265           1
	    5     0.10002      35.80834           1
	    6     0.10000      35.83038           1
	------------------------------------------------
	Norm of target step-size    0.10000
	Projected energy change by RFO approximation:        -0.0041744143

	Back-transformation to cartesian coordinates...
	Successfully converged to displaced geometry.

	--- Internal Coordinate Step in ANG or DEG, aJ/ANG or AJ/DEG ---
	 ---------------------------------------------------------------------------
	   Coordinate                Previous        Force       Change         New 
	   ----------                --------       ------       ------       ------
	    1 R(1,4)          =      1.069848     0.099125     0.012125     1.081973
	    2 R(2,4)          =      1.070732     0.097973     0.012010     1.082742
	    3 R(3,4)          =      1.069065     0.101324     0.012370     1.081435
	    4 R(4,7)          =      1.540720    -0.053139    -0.007807     1.532912
	    5 R(5,7)          =      1.070546     0.099076     0.012139     1.082685
	    6 R(6,7)          =      1.069532     0.103779     0.012684     1.082217
	    7 R(7,10)         =      1.540128    -0.002060    -0.000302     1.539825
	    8 R(8,10)         =      1.069698     0.103095     0.012606     1.082303
	    9 R(9,10)         =      1.069668     0.104254     0.012747     1.082414
	   10 R(10,14)        =      1.539422    -0.048232    -0.007068     1.532354
	   11 R(11,14)        =      1.069756     0.103802     0.012694     1.082450
	   12 R(12,14)        =      1.069761     0.099941     0.012222     1.081983
	   13 R(13,14)        =      1.070201     0.095004     0.011631     1.081832
	   14 B(1,4,2)        =    109.457956    -0.000256    -0.592324   108.865633
	   15 B(1,4,3)        =    109.530446    -0.000153    -0.423203   109.107243
	   16 B(1,4,7)        =    109.472466     0.000131     0.299702   109.772168
	   17 B(2,4,3)        =    109.457062    -0.000228    -0.535440   108.921622
	   18 B(2,4,7)        =    109.433599     0.000449     1.112086   110.545686
	   19 B(3,4,7)        =    109.475749     0.000057     0.125226   109.600974
	   20 B(4,7,5)        =    109.406767    -0.000164    -0.335578   109.071189
	   21 B(4,7,6)        =    109.537131    -0.000217    -0.387243   109.149888
	   22 B(4,7,10)       =    109.492647     0.000691     1.499080   110.991727
	   23 B(5,7,6)        =    109.472548    -0.000011    -0.338072   109.134476
	   24 B(5,7,10)       =    109.459710    -0.000174    -0.296893   109.162817
	   25 B(6,7,10)       =    109.458493    -0.000125    -0.154196   109.304298
	   26 B(7,10,8)       =    109.452301    -0.000128    -0.162978   109.289323
	   27 B(7,10,9)       =    109.482155    -0.000175    -0.302533   109.179623
	   28 B(7,10,14)      =    109.504437     0.000692     1.500919   111.005355
	   29 B(8,10,9)       =    109.458846    -0.000011    -0.337326   109.121520
	   30 B(8,10,14)      =    109.478806    -0.000212    -0.369168   109.109638
	   31 B(9,10,14)      =    109.450772    -0.000167    -0.342205   109.108567
	   32 B(10,14,11)     =    109.488965     0.000445     1.100695   110.589659
	   33 B(10,14,12)     =    109.503926     0.000125     0.288215   109.792140
	   34 B(10,14,13)     =    109.524173     0.000051     0.109695   109.633868
	   35 B(11,14,12)     =    109.458432    -0.000254    -0.588191   108.870241
	   36 B(11,14,13)     =    109.438058    -0.000225    -0.529847   108.908211
	   37 B(12,14,13)     =    109.413709    -0.000143    -0.396963   109.016746
	   38 D(1,4,7,5)      =   -179.995288     0.000017     0.223572  -179.771717
	   39 D(1,4,7,6)      =    -59.992819    -0.000040    -0.622759   -60.615578
	   40 D(1,4,7,10)     =     60.045148    -0.000008    -0.125479    59.919669
	   41 D(2,4,7,5)      =    -60.033789     0.000026     0.373030   -59.660760
	   42 D(2,4,7,6)      =     59.968680    -0.000031    -0.473301    59.495379
	   43 D(2,4,7,10)     =   -179.993353     0.000001     0.023979  -179.969374
	   44 D(3,4,7,5)      =     59.928621     0.000033     0.481369    60.409990
	   45 D(3,4,7,6)      =    179.931091    -0.000024    -0.364962   179.566129
	   46 D(3,4,7,10)     =    -60.030943     0.000008     0.132318   -59.898625
	   47 D(4,7,10,8)     =    -99.987982     0.000035     0.517690   -99.470292
	   48 D(4,7,10,9)     =     19.991973    -0.000011    -0.174904    19.817069
	   49 D(4,7,10,14)    =    139.993976     0.000015     0.143132   140.137108
	   50 D(5,7,10,8)     =    140.084880     0.000009     0.190603   140.275483
	   51 D(5,7,10,9)     =    -99.935165    -0.000037    -0.501991  -100.437156
	   52 D(5,7,10,14)    =     20.066838    -0.000011    -0.183955    19.882883
	   53 D(6,7,10,8)     =     20.098091     0.000054     0.875401    20.973492
	   54 D(6,7,10,9)     =    140.078045     0.000008     0.182808   140.260853
	   55 D(6,7,10,14)    =    -99.919951     0.000034     0.500843   -99.419108
	   56 D(7,10,14,11)   =    179.989448     0.000001     0.026643   180.016091
	   57 D(7,10,14,12)   =     59.974196    -0.000008    -0.115486    59.858709
	   58 D(7,10,14,13)   =    -60.007849     0.000008     0.126795   -59.881053
	   59 D(8,10,14,11)   =     59.987626    -0.000030    -0.470589    59.517036
	   60 D(8,10,14,12)   =    -60.027626    -0.000039    -0.612719   -60.640345
	   61 D(8,10,14,13)   =    179.990329    -0.000024    -0.370437   179.619892
	   62 D(9,10,14,11)   =    -59.989345     0.000026     0.367617   -59.621728
	   63 D(9,10,14,12)   =    179.995403     0.000017     0.225487   180.220890
	   64 D(9,10,14,13)   =     60.013359     0.000032     0.467769    60.481127
	 ---------------------------------------------------------------------------
	Successfully symmetrized geometry.
	 Forces used to impose fixed constraints are not included.
	  Forces zeroed: 49 

  ==> Convergence Check <==

  Measures of convergence in internal coordinates in au.
  Criteria marked as inactive (o), active & met (*), and active & unmet ( ).
  --------------------------------------------------------------------------------------------- ~
   Step     Total Energy     Delta E     MAX Force     RMS Force      MAX Disp      RMS Disp    ~
  --------------------------------------------------------------------------------------------- ~
    Convergence Criteria    1.00e-06 *    3.00e-04 *             o    1.20e-03 *             o  ~
  --------------------------------------------------------------------------------------------- ~
      1    -158.15324953   -1.58e+02      1.27e-02      5.53e-03 o    2.62e-02      1.25e-02 o  ~
  ---------------------------------------------------------------------------------------------

	Writing optimization data to binary file.
	Structure for next step:
	Cartesian Geometry (in Angstrom)
	    H    -2.1968492030   0.1647468819  -0.9168706543
	    H    -1.8041237332   1.8811976481  -0.9040713706
	    H    -0.8494867801   0.7682939248  -1.8794384686
	    C    -1.3879538255   0.8826235997  -0.9485869215
	    H     0.3659972262   1.3697582650   0.1884914699
	    H    -0.9801701167   0.7672184470   1.1561241984
	    C    -0.4359960250   0.6435476545   0.2288848379
	    H    -0.3807301142  -1.4176655990   0.8548603467
	    H     0.0691850039  -1.1617173186  -0.8311325796
	    C     0.1626534295  -0.7741251780   0.1751759273
	    H     2.0565751223  -1.7601752482   0.5318408948
	    H     1.7485166360  -0.3785251425   1.5787961079
	    H     2.1952900494  -0.1248117313  -0.1064001629
	    C     1.6426340256  -0.7608128594   0.5721522234
			--------------------------
			 OPTKING Finished Execution 
			--------------------------

    Structure for next step:
    Molecular point group: c1
    Full point group: C1

    Geometry (in Angstrom), charge = 0, multiplicity = 1:

    H           -2.196883807204     0.164678588857    -0.916890412762
    H           -1.804158337370     1.881129355129    -0.904091129144
    H           -0.849521384292     0.768225631803    -1.879458227131
    C           -1.387988429625     0.882555306694    -0.948606680002
    H            0.365962621981     1.369689971973     0.188471711376
    H           -0.980204720892     0.767150154020     1.156104439929
    C           -0.436030629210     0.643479361549     0.228865079391
    H           -0.380764718419    -1.417733892028     0.854840588184
    H            0.069150399679    -1.161785611548    -0.831152338112
    C            0.162618825280    -0.774193471008     0.175156168807
    H            2.056540518126    -1.760243541219     0.531821136307
    H            1.748482031840    -0.378593435478     1.578776349421
    H            2.195255445270    -0.124880024312    -0.106419921431
    C            1.642599421461    -0.760881152379     0.572132464862

gradient() will perform analytic gradient computation.

*** tstart() called on cpu-6-2.local
*** at Wed Jun 14 14:28:01 2017

    SCF Algorithm Type (re)set to DF.

*** tstart() called on cpu-6-2.local
*** at Wed Jun 14 14:28:01 2017

   => Loading Basis Set <=

    Name: AUG-CC-PVTZ
    Role: ORBITAL
    Keyword: BASIS
    atoms 1-3, 5-6, 8-9, 11-13 entry H          line    34 file /cbio/jclab/home/chayas/anaconda/envs/py35/share/psi4/basis/aug-cc-pvtz.gbs 
    atoms 4, 7, 10, 14         entry C          line   221 file /cbio/jclab/home/chayas/anaconda/envs/py35/share/psi4/basis/aug-cc-pvtz.gbs 


         ---------------------------------------------------------
                                   SCF
            by Justin Turney, Rob Parrish, and Andy Simmonett
                              RHF Reference
                        1 Threads,    953 MiB Core
         ---------------------------------------------------------

  ==> Geometry <==

    Molecular point group: c1
    Full point group: C1

    Geometry (in Angstrom), charge = 0, multiplicity = 1:

       Center              X                  Y                   Z               Mass       
    ------------   -----------------  -----------------  -----------------  -----------------
           H         -2.196883807204     0.164678588857    -0.916890412762     1.007825032070
           H         -1.804158337370     1.881129355129    -0.904091129144     1.007825032070
           H         -0.849521384292     0.768225631803    -1.879458227131     1.007825032070
           C         -1.387988429625     0.882555306694    -0.948606680002    12.000000000000
           H          0.365962621981     1.369689971973     0.188471711376     1.007825032070
           H         -0.980204720892     0.767150154020     1.156104439929     1.007825032070
           C         -0.436030629210     0.643479361549     0.228865079391    12.000000000000
           H         -0.380764718419    -1.417733892028     0.854840588184     1.007825032070
           H          0.069150399679    -1.161785611548    -0.831152338112     1.007825032070
           C          0.162618825280    -0.774193471008     0.175156168807    12.000000000000
           H          2.056540518126    -1.760243541219     0.531821136307     1.007825032070
           H          1.748482031840    -0.378593435478     1.578776349421     1.007825032070
           H          2.195255445270    -0.124880024312    -0.106419921431     1.007825032070
           C          1.642599421461    -0.760881152379     0.572132464862    12.000000000000

  Running in c1 symmetry.

  Rotational constants: A =      0.67873  B =      0.12591  C =      0.12140 [cm^-1]
  Rotational constants: A =  20347.85279  B =   3774.58355  C =   3639.36798 [MHz]
  Nuclear repulsion =  131.565076372877655

  Charge       = 0
  Multiplicity = 1
  Electrons    = 34
  Nalpha       = 17
  Nbeta        = 17

  ==> Algorithm <==

  SCF Algorithm Type is DF.
  DIIS enabled.
  MOM disabled.
  Fractional occupation disabled.
  Guess Type is READ.
  Energy threshold   = 1.00e-10
  Density threshold  = 1.00e-10
  Integral threshold = 0.00e+00

  ==> Primary Basis <==

  Basis Set: AUG-CC-PVTZ
    Blend: AUG-CC-PVTZ
    Number of shells: 146
    Number of basis function: 414
    Number of Cartesian functions: 470
    Spherical Harmonics?: true
    Max angular momentum: 3

   => Loading Basis Set <=

    Name: (AUG-CC-PVTZ AUX)
    Role: JKFIT
    Keyword: DF_BASIS_SCF
    atoms 1-3, 5-6, 8-9, 11-13 entry H          line    69 file /cbio/jclab/home/chayas/anaconda/envs/py35/share/psi4/basis/aug-cc-pvtz-jkfit.gbs 
    atoms 4, 7, 10, 14         entry C          line   161 file /cbio/jclab/home/chayas/anaconda/envs/py35/share/psi4/basis/aug-cc-pvtz-jkfit.gbs 

  Reading orbitals from file 180, no projection.

  ==> Pre-Iterations <==

   -------------------------------------------------------
    Irrep   Nso     Nmo     Nalpha   Nbeta   Ndocc  Nsocc
   -------------------------------------------------------
     A        414     414       0       0       0       0
   -------------------------------------------------------
    Total     414     414      17      17      17       0
   -------------------------------------------------------

  ==> Integral Setup <==

  ==> DFJK: Density-Fitted J/K Matrices <==

    J tasked:                  Yes
    K tasked:                  Yes
    wK tasked:                  No
    OpenMP threads:              1
    Integrals threads:           1
    Memory (MB):               715
    Algorithm:                Core
    Integral Cache:           NONE
    Schwarz Cutoff:          1E-12
    Fitting Condition:       1E-12

   => Auxiliary Basis Set <=

  Basis Set: (AUG-CC-PVTZ AUX)
    Blend: AUG-CC-PVTZ-JKFIT
    Number of shells: 260
    Number of basis function: 876
    Number of Cartesian functions: 1074
    Spherical Harmonics?: true
    Max angular momentum: 4

  Minimum eigenvalue in the overlap matrix is 8.4480857336E-06.
  Using Symmetric Orthogonalization.

  SCF Guess: Orbitals guess was supplied from a previous computation.

  ==> Iterations <==

                           Total Energy        Delta E     RMS |[F,P]|

   @DF-RHF iter   0:  -157.26945036735174   -1.57269e+02   1.29442e-04 
   @DF-RHF iter   1:  -157.35061358505936   -8.11632e-02   5.46180e-05 
   @DF-RHF iter   2:  -157.35091482928971   -3.01244e-04   2.83219e-05 DIIS
   @DF-RHF iter   3:  -157.35098022754150   -6.53983e-05   3.22351e-06 DIIS
   @DF-RHF iter   4:  -157.35098218961230   -1.96207e-06   8.47636e-07 DIIS
   @DF-RHF iter   5:  -157.35098230513864   -1.15526e-07   2.94438e-07 DIIS
   @DF-RHF iter   6:  -157.35098231854747   -1.34088e-08   5.14087e-08 DIIS
   @DF-RHF iter   7:  -157.35098231914961   -6.02142e-10   9.30131e-09 DIIS
   @DF-RHF iter   8:  -157.35098231916555   -1.59446e-11   2.27686e-09 DIIS
   @DF-RHF iter   9:  -157.35098231916743   -1.87583e-12   5.02565e-10 DIIS
   @DF-RHF iter  10:  -157.35098231916606    1.36424e-12   9.58576e-11 DIIS

  ==> Post-Iterations <==

    Orbital Energies (a.u.)
    -----------------------

    Doubly Occupied:                                                      

       1A    -11.209802     2A    -11.209219     3A    -11.204418  
       4A    -11.204380     5A     -1.069868     6A     -0.980074  
       7A     -0.860358     8A     -0.789048     9A     -0.640348  
      10A     -0.591500    11A     -0.583090    12A     -0.558761  
      13A     -0.510437    14A     -0.505905    15A     -0.465513  
      16A     -0.464222    17A     -0.448180  

    Virtual:                                                              

      18A      0.032227    19A      0.037451    20A      0.039473  
      21A      0.039933    22A      0.056897    23A      0.060322  
      24A      0.060949    25A      0.061949    26A      0.067392  
      27A      0.083359    28A      0.118028    29A      0.118138  
      30A      0.123426    31A      0.126665    32A      0.131775  
      33A      0.134945    34A      0.141492    35A      0.142847  
      36A      0.146225    37A      0.151753    38A      0.158365  
      39A      0.169394    40A      0.169921    41A      0.202639  
      42A      0.206571    43A      0.213700    44A      0.231894  
      45A      0.237791    46A      0.238031    47A      0.267743  
      48A      0.278857    49A      0.281433    50A      0.297335  
      51A      0.298582    52A      0.303079    53A      0.306150  
      54A      0.327897    55A      0.330264    56A      0.335361  
      57A      0.345983    58A      0.355578    59A      0.357485  
      60A      0.360483    61A      0.364379    62A      0.374642  
      63A      0.376643    64A      0.378354    65A      0.386847  
      66A      0.390125    67A      0.394075    68A      0.400675  
      69A      0.415315    70A      0.416632    71A      0.426150  
      72A      0.430123    73A      0.443206    74A      0.446013  
      75A      0.448184    76A      0.453512    77A      0.457834  
      78A      0.471951    79A      0.474625    80A      0.479035  
      81A      0.481004    82A      0.495573    83A      0.501959  
      84A      0.506200    85A      0.515881    86A      0.523336  
      87A      0.527244    88A      0.537713    89A      0.538963  
      90A      0.553984    91A      0.559190    92A      0.562927  
      93A      0.573196    94A      0.576475    95A      0.577170  
      96A      0.583102    97A      0.593690    98A      0.605630  
      99A      0.607873   100A      0.627680   101A      0.644685  
     102A      0.647582   103A      0.666375   104A      0.682108  
     105A      0.683561   106A      0.698095   107A      0.763146  
     108A      0.780825   109A      0.808428   110A      0.815930  
     111A      0.825372   112A      0.833889   113A      0.839589  
     114A      0.850794   115A      0.852361   116A      0.858591  
     117A      0.859511   118A      0.863856   119A      0.878821  
     120A      0.879065   121A      0.894007   122A      0.896740  
     123A      0.901978   124A      0.915602   125A      0.920766  
     126A      0.928283   127A      0.944788   128A      0.952981  
     129A      0.956407   130A      0.962389   131A      0.967281  
     132A      0.978962   133A      0.980602   134A      0.987991  
     135A      0.994971   136A      1.005081   137A      1.013332  
     138A      1.030656   139A      1.036382   140A      1.045249  
     141A      1.072199   142A      1.076429   143A      1.086326  
     144A      1.100452   145A      1.105899   146A      1.112238  
     147A      1.122632   148A      1.142054   149A      1.146936  
     150A      1.153355   151A      1.157213   152A      1.165042  
     153A      1.165917   154A      1.188635   155A      1.194292  
     156A      1.204745   157A      1.227183   158A      1.231665  
     159A      1.253101   160A      1.253125   161A      1.266268  
     162A      1.271182   163A      1.279769   164A      1.290608  
     165A      1.298007   166A      1.320826   167A      1.330161  
     168A      1.333653   169A      1.358962   170A      1.359679  
     171A      1.365193   172A      1.377565   173A      1.388744  
     174A      1.426321   175A      1.431076   176A      1.444420  
     177A      1.445537   178A      1.472821   179A      1.489974  
     180A      1.499968   181A      1.511453   182A      1.530346  
     183A      1.552313   184A      1.558683   185A      1.575887  
     186A      1.590316   187A      1.606265   188A      1.609806  
     189A      1.629877   190A      1.656050   191A      1.665327  
     192A      1.669192   193A      1.671632   194A      1.686723  
     195A      1.687486   196A      1.692268   197A      1.703620  
     198A      1.712841   199A      1.722695   200A      1.732402  
     201A      1.742005   202A      1.752719   203A      1.764071  
     204A      1.768053   205A      1.779630   206A      1.800447  
     207A      1.812776   208A      1.828824   209A      1.835673  
     210A      1.846436   211A      1.862994   212A      1.864759  
     213A      1.893793   214A      1.908364   215A      1.917215  
     216A      1.935626   217A      1.946468   218A      1.960860  
     219A      1.975914   220A      1.988313   221A      2.001888  
     222A      2.006018   223A      2.029157   224A      2.034700  
     225A      2.056034   226A      2.058421   227A      2.062546  
     228A      2.083648   229A      2.103502   230A      2.111421  
     231A      2.140892   232A      2.177954   233A      2.216539  
     234A      2.238551   235A      2.241547   236A      2.248065  
     237A      2.251565   238A      2.269369   239A      2.288192  
     240A      2.296899   241A      2.314877   242A      2.322129  
     243A      2.350141   244A      2.355581   245A      2.362838  
     246A      2.406550   247A      2.426206   248A      2.448874  
     249A      2.454182   250A      2.490677   251A      2.506464  
     252A      2.532344   253A      2.573103   254A      2.586135  
     255A      2.598575   256A      2.646283   257A      2.851490  
     258A      2.864462   259A      3.009385   260A      3.014459  
     261A      3.224924   262A      3.283863   263A      3.284192  
     264A      3.330987   265A      3.346889   266A      3.434416  
     267A      3.448989   268A      3.457793   269A      3.482037  
     270A      3.513328   271A      3.531598   272A      3.558532  
     273A      3.560402   274A      3.579648   275A      3.614987  
     276A      3.624129   277A      3.641677   278A      3.646582  
     279A      3.658447   280A      3.688070   281A      3.703047  
     282A      3.708174   283A      3.721234   284A      3.733873  
     285A      3.751881   286A      3.771508   287A      3.774307  
     288A      3.786830   289A      3.830399   290A      3.830606  
     291A      3.838702   292A      3.856329   293A      3.857825  
     294A      3.894056   295A      3.911096   296A      3.927331  
     297A      3.953659   298A      3.958483   299A      3.972442  
     300A      3.996445   301A      3.999322   302A      4.007255  
     303A      4.017370   304A      4.044674   305A      4.053991  
     306A      4.067906   307A      4.087266   308A      4.103707  
     309A      4.115157   310A      4.142665   311A      4.159564  
     312A      4.190328   313A      4.209086   314A      4.232862  
     315A      4.266688   316A      4.267749   317A      4.288574  
     318A      4.298612   319A      4.301112   320A      4.315878  
     321A      4.332886   322A      4.369582   323A      4.374678  
     324A      4.405075   325A      4.415545   326A      4.448981  
     327A      4.498862   328A      4.534473   329A      4.551815  
     330A      4.601052   331A      4.607858   332A      4.640241  
     333A      4.659760   334A      4.675214   335A      4.680264  
     336A      4.705387   337A      4.737301   338A      4.754671  
     339A      4.765939   340A      4.795073   341A      4.823474  
     342A      4.847346   343A      4.857174   344A      4.875177  
     345A      4.876456   346A      4.908098   347A      4.919010  
     348A      4.953145   349A      4.953267   350A      4.985953  
     351A      5.010716   352A      5.057038   353A      5.068348  
     354A      5.081551   355A      5.118586   356A      5.146024  
     357A      5.146517   358A      5.167879   359A      5.183068  
     360A      5.194873   361A      5.227011   362A      5.242252  
     363A      5.275812   364A      5.280243   365A      5.300253  
     366A      5.341862   367A      5.344222   368A      5.373762  
     369A      5.381032   370A      5.418734   371A      5.458225  
     372A      5.466751   373A      5.497449   374A      5.500838  
     375A      5.521171   376A      5.584772   377A      5.585128  
     378A      5.615899   379A      5.616901   380A      5.661009  
     381A      5.681320   382A      5.747715   383A      5.753513  
     384A      5.808020   385A      5.809748   386A      5.860675  
     387A      5.877225   388A      5.911465   389A      5.957691  
     390A      5.969452   391A      6.051247   392A      6.095642  
     393A      6.110877   394A      6.189229   395A      6.208903  
     396A      6.231731   397A      6.257966   398A      6.262189  
     399A      6.308371   400A      6.315283   401A      6.330335  
     402A      6.468760   403A      6.533966   404A      6.612236  
     405A      6.738779   406A      6.766207   407A      6.835381  
     408A      6.836496   409A      6.891323   410A      6.998945  
     411A     17.941554   412A     18.210138   413A     18.790309  
     414A     19.526069  

    Final Occupation by Irrep:
              A 
    DOCC [    17 ]

  Energy converged.

  @DF-RHF Final Energy:  -157.35098231916606

   => Energetics <=

    Nuclear Repulsion Energy =            131.5650763728776553
    One-Electron Energy =                -471.2418720796435423
    Two-Electron Energy =                 182.3258133875998510
    DFT Exchange-Correlation Energy =       0.0000000000000000
    Empirical Dispersion Energy =           0.0000000000000000
    PCM Polarization Energy =               0.0000000000000000
    EFP Energy =                            0.0000000000000000
    Total Energy =                       -157.3509823191660644



Properties will be evaluated at   0.000000,   0.000000,   0.000000 Bohr

Properties computed using the SCF density matrix

  Nuclear Dipole Moment: (a.u.)
     X:     0.2099      Y:     0.1009      Z:    -0.3075

  Electronic Dipole Moment: (a.u.)
     X:    -0.2234      Y:    -0.1075      Z:     0.3276

  Dipole Moment: (a.u.)
     X:    -0.0136      Y:    -0.0066      Z:     0.0201     Total:     0.0251

  Dipole Moment: (Debye)
     X:    -0.0344      Y:    -0.0168      Z:     0.0511     Total:     0.0639


*** tstop() called on cpu-6-2.local at Wed Jun 14 14:28:57 2017
Module time:
	user time   =      55.56 seconds =       0.93 minutes
	system time =       0.38 seconds =       0.01 minutes
	total time  =         56 seconds =       0.93 minutes
Total time:
	user time   =     351.56 seconds =       5.86 minutes
	system time =       3.44 seconds =       0.06 minutes
	total time  =        355 seconds =       5.92 minutes

  //>>>>>>>>>>>>>>>>>>>>>>>>>>>>>>>>>>>//
  //               DFMP2               //
  //<<<<<<<<<<<<<<<<<<<<<<<<<<<<<<<<<<<//

   => Loading Basis Set <=

    Name: (AUG-CC-PVTZ AUX)
    Role: RIFIT
    Keyword: DF_BASIS_MP2
    atoms 1-3, 5-6, 8-9, 11-13 entry H          line    29 file /cbio/jclab/home/chayas/anaconda/envs/py35/share/psi4/basis/aug-cc-pvtz-ri.gbs 
    atoms 4, 7, 10, 14         entry C          line   147 file /cbio/jclab/home/chayas/anaconda/envs/py35/share/psi4/basis/aug-cc-pvtz-ri.gbs 

	 --------------------------------------------------------
	                          DF-MP2                         
	      2nd-Order Density-Fitted Moller-Plesset Theory     
	              RMP2 Wavefunction,   1 Threads             
	                                                         
	        Rob Parrish, Justin Turney, Andy Simmonett,      
	           Ed Hohenstein, and C. David Sherrill          
	 --------------------------------------------------------

   => Auxiliary Basis Set <=

  Basis Set: (AUG-CC-PVTZ AUX)
    Blend: AUG-CC-PVTZ-RI
    Number of shells: 252
    Number of basis function: 884
    Number of Cartesian functions: 1094
    Spherical Harmonics?: true
    Max angular momentum: 4

	 --------------------------------------------------------
	                 NBF =   414, NAUX =   884
	 --------------------------------------------------------
	   CLASS    FOCC     OCC    AOCC    AVIR     VIR    FVIR
	   PAIRS       0      17      17     397     397       0
	 --------------------------------------------------------


         ------------------------------------------------------------
                                     CPHF                           
                                  Rob Parrish                       
         ------------------------------------------------------------

  ==> Geometry <==

    Molecular point group: c1
    Full point group: C1

    Geometry (in Angstrom), charge = 0, multiplicity = 1:

       Center              X                  Y                   Z               Mass       
    ------------   -----------------  -----------------  -----------------  -----------------
           H         -2.196883807204     0.164678588857    -0.916890412762     1.007825032070
           H         -1.804158337370     1.881129355129    -0.904091129144     1.007825032070
           H         -0.849521384292     0.768225631803    -1.879458227131     1.007825032070
           C         -1.387988429625     0.882555306694    -0.948606680002    12.000000000000
           H          0.365962621981     1.369689971973     0.188471711376     1.007825032070
           H         -0.980204720892     0.767150154020     1.156104439929     1.007825032070
           C         -0.436030629210     0.643479361549     0.228865079391    12.000000000000
           H         -0.380764718419    -1.417733892028     0.854840588184     1.007825032070
           H          0.069150399679    -1.161785611548    -0.831152338112     1.007825032070
           C          0.162618825280    -0.774193471008     0.175156168807    12.000000000000
           H          2.056540518126    -1.760243541219     0.531821136307     1.007825032070
           H          1.748482031840    -0.378593435478     1.578776349421     1.007825032070
           H          2.195255445270    -0.124880024312    -0.106419921431     1.007825032070
           C          1.642599421461    -0.760881152379     0.572132464862    12.000000000000

  Nuclear repulsion =  131.565076372877655
  Reference energy  = -157.350982319166064

  ==> Basis Set <==

  Basis Set: AUG-CC-PVTZ
    Blend: AUG-CC-PVTZ
    Number of shells: 146
    Number of basis function: 414
    Number of Cartesian functions: 470
    Spherical Harmonics?: true
    Max angular momentum: 3

  ==> CGRSolver (by Rob Parrish) <==

   Number of roots    =         1
   Preconditioning    =    JACOBI
   Convergence cutoff =     1E-06
   Maximum iterations =       100

  ==> CPHFRHamiltonian (by Rob Parrish) <== 

  ==> DFJK: Density-Fitted J/K Matrices <==

    J tasked:                  Yes
    K tasked:                  Yes
    wK tasked:                  No
    OpenMP threads:              1
    Integrals threads:           1
    Memory (MB):               715
    Algorithm:                Core
    Integral Cache:           NONE
    Schwarz Cutoff:          1E-12
    Fitting Condition:       1E-12

   => Auxiliary Basis Set <=

  Basis Set: (AUG-CC-PVTZ AUX)
    Blend: AUG-CC-PVTZ-JKFIT
    Number of shells: 260
    Number of basis function: 876
    Number of Cartesian functions: 1074
    Spherical Harmonics?: true
    Max angular momentum: 4

  ==> CPHF Iterations <==

  => Iterations <=

             Iter  Converged  Remaining    Residual
  CGR           1          0          1   8.353E-02
  CGR           2          0          1   1.341E-02
  CGR           3          0          1   3.446E-03
  CGR           4          0          1   8.376E-04
  CGR           5          0          1   1.435E-04
  CGR           6          0          1   3.190E-05
  CGR           7          0          1   6.576E-06
  CGR           8          0          1   1.346E-06
  CGR           9          1          0   2.070E-07

    CGRSolver converged.

  ==> DFCorrGrad: Density-Fitted Correlated Gradients <==

    OpenMP threads:              1
    Integrals threads:           1
    Memory (MB):               715
    Schwarz Cutoff:          0E+00
    Fitting Condition:       1E-12

   => Auxiliary Basis Set <=

  Basis Set: (AUG-CC-PVTZ AUX)
    Blend: AUG-CC-PVTZ-JKFIT
    Number of shells: 260
    Number of basis function: 876
    Number of Cartesian functions: 1074
    Spherical Harmonics?: true
    Max angular momentum: 4

	-----------------------------------------------------------
	 ==================> DF-MP2 Energies <==================== 
	-----------------------------------------------------------
	 Reference Energy          =    -157.3509823191660644 [Eh]
	 Singles Energy            =      -0.0000000000000003 [Eh]
	 Same-Spin Energy          =      -0.1653507690233359 [Eh]
	 Opposite-Spin Energy      =      -0.6398837370289427 [Eh]
	 Correlation Energy        =      -0.8052345060522790 [Eh]
	 Total Energy              =    -158.1562168252183369 [Eh]
	-----------------------------------------------------------
	 ================> DF-SCS-MP2 Energies <================== 
	-----------------------------------------------------------
	 SCS Same-Spin Scale       =       0.3333333333333333 [-]
	 SCS Opposite-Spin Scale   =       1.2000000000000000 [-]
	 SCS Same-Spin Energy      =      -0.0551169230077786 [Eh]
	 SCS Opposite-Spin Energy  =      -0.7678604844347313 [Eh]
	 SCS Correlation Energy    =      -0.8229774074425102 [Eh]
	 SCS Total Energy          =    -158.1739597266085866 [Eh]
	-----------------------------------------------------------


  -Total Gradient:
     Atom            X                  Y                   Z
    ------   -----------------  -----------------  -----------------
       1        0.003305521458     0.002164614790     0.001762112937
       2        0.002606119885    -0.002577336436     0.001681919186
       3       -0.000575399899     0.000415133473     0.004231948216
       4       -0.006670085002    -0.001313167251    -0.013015175636
       5       -0.002275118025    -0.003735073009    -0.001858384665
       6       -0.000644177637    -0.003603568070    -0.004524874186
       7        0.006211040158     0.011942355335     0.014152114545
       8        0.003197164349     0.004791318942     0.000830717873
       9        0.001490442578     0.003401745886     0.003171217384
      10       -0.011216330173    -0.014411681683    -0.006630774184
      11       -0.003291173733     0.002457049970    -0.000714655655
      12       -0.002220848040    -0.001614896222    -0.003315253656
      13       -0.003149419120    -0.002096793390     0.001438482845
      14        0.013232263202     0.004180297664     0.002790605001


*** tstop() called on cpu-6-2.local at Wed Jun 14 14:32:50 2017
Module time:
	user time   =     286.96 seconds =       4.78 minutes
	system time =       2.83 seconds =       0.05 minutes
	total time  =        289 seconds =       4.82 minutes
Total time:
	user time   =     582.96 seconds =       9.72 minutes
	system time =       5.89 seconds =       0.10 minutes
	total time  =        588 seconds =       9.80 minutes

			-----------------------------------------
			 OPTKING 2.0: for geometry optimizations 
			  - R.A. King,  Bethel University        
			-----------------------------------------

	Previous internal coordinate definitions found.
	---Fragment 1 Geometry and Gradient---
	 H          -4.1515087414        0.3111974329       -1.7326717740
	 H          -3.4093651580        3.5548193017       -1.7084846333
	 H          -1.6053627603        1.4517360524       -3.5516613275
	 C          -2.6229180076        1.6677878268       -1.7926068330
	 H           0.6915691304        2.5883389340        0.3561599183
	 H          -1.8523184766        1.4497036939        2.1847207725
	 C          -0.8239784748        1.2159997655        0.4324923214
	 H          -0.7195410389       -2.6791287852        1.6154145989
	 H           0.1306753174       -2.1954566310       -1.5706502937
	 C           0.3073050438       -1.4630136341        0.3309971895
	 H           3.8862983604       -3.3263782201        1.0049962993
	 H           3.3041521884       -0.7154379088        2.9834549255
	 H           4.1484315833       -0.2359890454       -0.2011045066
	 C           3.1040630526       -1.4378569977        1.0811736703
	             0.0033055215        0.0021646148        0.0017621129
	             0.0026061199       -0.0025773364        0.0016819192
	            -0.0005753999        0.0004151335        0.0042319482
	            -0.0066700850       -0.0013131673       -0.0130151756
	            -0.0022751180       -0.0037350730       -0.0018583847
	            -0.0006441776       -0.0036035681       -0.0045248742
	             0.0062110402        0.0119423553        0.0141521145
	             0.0031971643        0.0047913189        0.0008307179
	             0.0014904426        0.0034017459        0.0031712174
	            -0.0112163302       -0.0144116817       -0.0066307742
	            -0.0032911737        0.0024570500       -0.0007146557
	            -0.0022208480       -0.0016148962       -0.0033152537
	            -0.0031494191       -0.0020967934        0.0014384828
	             0.0132322632        0.0041802977        0.0027906050

	---Fragment 1 Intrafragment Coordinates---
	 - Coordinate -           - BOHR/RAD -       - ANG/DEG -
	 R(1,4)           =         2.044632	       1.081973
	 R(2,4)           =         2.046085	       1.082742
	 R(3,4)           =         2.043617	       1.081435
	 R(4,7)           =         2.896785	       1.532912
	 R(5,7)           =         2.045978	       1.082685
	 R(6,7)           =         2.045093	       1.082217
	 R(7,10)          =         2.909848	       1.539825
	 R(8,10)          =         2.045257	       1.082303
	 R(9,10)          =         2.045467	       1.082414
	 R(10,14)         =         2.895730	       1.532354
	 R(11,14)         =         2.045534	       1.082450
	 R(12,14)         =         2.044651	       1.081983
	 R(13,14)         =         2.044365	       1.081832
	 B(1,4,2)         =         1.900064	     108.865633
	 B(1,4,3)         =         1.904281	     109.107243
	 B(1,4,7)         =         1.915886	     109.772168
	 B(2,4,3)         =         1.901041	     108.921622
	 B(2,4,7)         =         1.929386	     110.545686
	 B(3,4,7)         =         1.912898	     109.600974
	 B(4,7,5)         =         1.903651	     109.071189
	 B(4,7,6)         =         1.905025	     109.149888
	 B(4,7,10)        =         1.937171	     110.991727
	 B(5,7,6)         =         1.904756	     109.134476
	 B(5,7,10)        =         1.905251	     109.162817
	 B(6,7,10)        =         1.907720	     109.304298
	 B(7,10,8)        =         1.907459	     109.289323
	 B(7,10,9)        =         1.905544	     109.179623
	 B(7,10,14)       =         1.937409	     111.005355
	 B(8,10,9)        =         1.904530	     109.121520
	 B(8,10,14)       =         1.904322	     109.109638
	 B(9,10,14)       =         1.904304	     109.108567
	 B(10,14,11)      =         1.930154	     110.589659
	 B(10,14,12)      =         1.916234	     109.792140
	 B(10,14,13)      =         1.913472	     109.633868
	 B(11,14,12)      =         1.900144	     108.870241
	 B(11,14,13)      =         1.900807	     108.908211
	 B(12,14,13)      =         1.902701	     109.016746
	 D(1,4,7,5)       =        -3.137608	    -179.771717
	 D(1,4,7,6)       =        -1.057941	     -60.615578
	 D(1,4,7,10)      =         1.045796	      59.919669
	 D(2,4,7,5)       =        -1.041277	     -59.660760
	 D(2,4,7,6)       =         1.038390	      59.495379
	 D(2,4,7,10)      =        -3.141058	    -179.969374
	 D(3,4,7,5)       =         1.054353	      60.409990
	 D(3,4,7,6)       =         3.134020	     179.566129
	 D(3,4,7,10)      =        -1.045428	     -59.898625
	 D(4,7,10,8)      =        -1.736084	     -99.470292
	 D(4,7,10,9)      =         0.345873	      19.817069
	 D(4,7,10,14)     =         2.445854	     140.137108
	 D(5,7,10,8)      =         2.448269	     140.275483
	 D(5,7,10,9)      =        -1.752959	    -100.437156
	 D(5,7,10,14)     =         0.347022	      19.882883
	 D(6,7,10,8)      =         0.366056	      20.973492
	 D(6,7,10,9)      =         2.448014	     140.260853
	 D(6,7,10,14)     =        -1.735191	     -99.419108
	 D(7,10,14,11)    =        -3.141312	    -179.983909
	 D(7,10,14,12)    =         1.044732	      59.858709
	 D(7,10,14,13)    =        -1.045122	     -59.881053
	 D(8,10,14,11)    =         1.038768	      59.517036
	 D(8,10,14,12)    =        -1.058374	     -60.640345
	 D(8,10,14,13)    =         3.134959	     179.619892
	 D(9,10,14,11)    =        -1.040595	     -59.621728
	 D(9,10,14,12)    =        -3.137737	    -179.779110
	 D(9,10,14,13)    =         1.055595	      60.481127

	Current energy   :      -158.1562168252

	Energy change for the previous step:
		Projected    :        -0.0041744143
		Actual       :        -0.0029672949

	Performing BFGS update.
	Previous computed or guess Hessian on step 1.
	Steps to be used in Hessian update: 1
	Adding user-defined constraint: Fragment 1; Coordinate 49:
		Value =     2.445854; Fixed value    =     2.443460
		Force =    -0.001257; Force constant =     0.525000
	Removing off-diagonal coupling between coordinate 49 and others.
	Taking RFO optimization step.
	Going to follow RFO solution 1.
	Using RFO vector 1.

	Determining step-restricting scale parameter for RS-RFO.
	Maximum step size allowed    0.10000

	 Iter      |step|        alpha        rfo_root  
	------------------------------------------------
	    0     0.19301       1.00000           1
	    1     0.15240       4.66506           1
	    2     0.12145      13.45695           1
	    3     0.10527      23.01218           1
	    4     0.10045      27.07308           1
	    5     0.10000      27.48217           1
	------------------------------------------------
	Norm of target step-size    0.10000
	Projected energy change by RFO approximation:        -0.0011397312

	Back-transformation to cartesian coordinates...
	Successfully converged to displaced geometry.

	--- Internal Coordinate Step in ANG or DEG, aJ/ANG or AJ/DEG ---
	 ---------------------------------------------------------------------------
	   Coordinate                Previous        Force       Change         New 
	   ----------                --------       ------       ------       ------
	    1 R(1,4)          =      1.081973     0.031767     0.005858     1.087831
	    2 R(2,4)          =      1.082742     0.027266     0.004815     1.087556
	    3 R(3,4)          =      1.081435     0.032733     0.006041     1.087476
	    4 R(4,7)          =      1.532912    -0.038929    -0.010245     1.522667
	    5 R(5,7)          =      1.082685     0.033954     0.006388     1.089073
	    6 R(6,7)          =      1.082217     0.032665     0.005988     1.088205
	    7 R(7,10)         =      1.539825    -0.019405    -0.005796     1.534030
	    8 R(8,10)         =      1.082303     0.032398     0.005939     1.088242
	    9 R(9,10)         =      1.082414     0.035386     0.006629     1.089043
	   10 R(10,14)        =      1.532354    -0.037005    -0.009775     1.522580
	   11 R(11,14)        =      1.082450     0.028839     0.005081     1.087531
	   12 R(12,14)        =      1.081983     0.031903     0.005876     1.087858
	   13 R(13,14)        =      1.081832     0.030844     0.005713     1.087545
	   14 B(1,4,2)        =    108.865633    -0.000156    -0.647991   108.217642
	   15 B(1,4,3)        =    109.107243    -0.000151    -0.814713   108.292530
	   16 B(1,4,7)        =    109.772168     0.000135     0.651119   110.423287
	   17 B(2,4,3)        =    108.921622    -0.000141    -0.597614   108.324007
	   18 B(2,4,7)        =    110.545686     0.000207     0.843994   111.389680
	   19 B(3,4,7)        =    109.600974     0.000098     0.502144   110.103118
	   20 B(4,7,5)        =    109.071189    -0.000046    -0.077124   108.994065
	   21 B(4,7,6)        =    109.149888    -0.000054     0.124197   109.274085
	   22 B(4,7,10)       =    110.991727     0.000273     1.094280   112.086006
	   23 B(5,7,6)        =    109.134476    -0.000094    -1.200178   107.934298
	   24 B(5,7,10)       =    109.162817    -0.000059    -0.143830   109.018987
	   25 B(6,7,10)       =    109.304298    -0.000026     0.137328   109.441626
	   26 B(7,10,8)       =    109.289323    -0.000027     0.142846   109.432169
	   27 B(7,10,9)       =    109.179623    -0.000059    -0.150008   109.029615
	   28 B(7,10,14)      =    111.005355     0.000271     1.083317   112.088673
	   29 B(8,10,9)       =    109.121520    -0.000094    -1.196556   107.924964
	   30 B(8,10,14)      =    109.109638    -0.000050     0.149542   109.259181
	   31 B(9,10,14)      =    109.108567    -0.000048    -0.094399   109.014168
	   32 B(10,14,11)     =    110.589659     0.000202     0.817317   111.406976
	   33 B(10,14,12)     =    109.792140     0.000131     0.631863   110.424003
	   34 B(10,14,13)     =    109.633868     0.000093     0.481984   110.115852
	   35 B(11,14,12)     =    108.870241    -0.000154    -0.644943   108.225298
	   36 B(11,14,13)     =    108.908211    -0.000138    -0.585427   108.322784
	   37 B(12,14,13)     =    109.016746    -0.000143    -0.763180   108.253566
	   38 D(1,4,7,5)      =   -179.771717     0.000012     0.362015  -179.409702
	   39 D(1,4,7,6)      =    -60.615578    -0.000028    -1.060548   -61.676126
	   40 D(1,4,7,10)     =     59.919669    -0.000004    -0.100594    59.819074
	   41 D(2,4,7,5)      =    -59.660760     0.000017     0.524233   -59.136527
	   42 D(2,4,7,6)      =     59.495379    -0.000022    -0.898331    58.597049
	   43 D(2,4,7,10)     =   -179.969374     0.000002     0.061623  -179.907751
	   44 D(3,4,7,5)      =     60.409990     0.000021     0.646459    61.056449
[...]
  CGR           5          0          1   1.429E-04
  CGR           6          0          1   3.247E-05
  CGR           7          0          1   6.487E-06
  CGR           8          0          1   1.315E-06
  CGR           9          1          0   1.943E-07

    CGRSolver converged.

  ==> DFCorrGrad: Density-Fitted Correlated Gradients <==

    OpenMP threads:              1
    Integrals threads:           1
    Memory (MB):               715
    Schwarz Cutoff:          0E+00
    Fitting Condition:       1E-12

   => Auxiliary Basis Set <=

  Basis Set: (AUG-CC-PVTZ AUX)
    Blend: AUG-CC-PVTZ-JKFIT
    Number of shells: 260
    Number of basis function: 876
    Number of Cartesian functions: 1074
    Spherical Harmonics?: true
    Max angular momentum: 4

	-----------------------------------------------------------
	 ==================> DF-MP2 Energies <==================== 
	-----------------------------------------------------------
	 Reference Energy          =    -157.3522324224646241 [Eh]
	 Singles Energy            =      -0.0000000000000000 [Eh]
	 Same-Spin Energy          =      -0.1654223514523210 [Eh]
	 Opposite-Spin Energy      =      -0.6398900513749799 [Eh]
	 Correlation Energy        =      -0.8053124028273009 [Eh]
	 Total Energy              =    -158.1575448252919216 [Eh]
	-----------------------------------------------------------
	 ================> DF-SCS-MP2 Energies <================== 
	-----------------------------------------------------------
	 SCS Same-Spin Scale       =       0.3333333333333333 [-]
	 SCS Opposite-Spin Scale   =       1.2000000000000000 [-]
	 SCS Same-Spin Energy      =      -0.0551407838174403 [Eh]
	 SCS Opposite-Spin Energy  =      -0.7678680616499759 [Eh]
	 SCS Correlation Energy    =      -0.8230088454674163 [Eh]
	 SCS Total Energy          =    -158.1752412679320514 [Eh]
	-----------------------------------------------------------


  -Total Gradient:
     Atom            X                  Y                   Z
    ------   -----------------  -----------------  -----------------
       1        0.000013554788     0.000001407795     0.000004642628
       2       -0.000001116884    -0.000006016316    -0.000005068525
       3       -0.000018872306     0.000002047651    -0.000005300701
       4        0.002024200540     0.000918184248    -0.001425334414
       5       -0.000026910159    -0.000027011446     0.000026179595
       6       -0.000010615275     0.000007887689    -0.000004518638
       7       -0.002494148944    -0.001081070361     0.001001654797
       8        0.000010538695    -0.000008008767     0.000004550322
       9       -0.000018951137     0.000006043987     0.000043105126
      10       -0.000137301433    -0.000171745661     0.002889178295
      11        0.000002585630     0.000007443360     0.000001803920
      12       -0.000009841000     0.000000161755    -0.000011331553
      13        0.000013065273    -0.000004778656     0.000013427199
      14        0.000653812213     0.000355454719    -0.002532988051


*** tstop() called on cpu-6-2.local at Wed Jun 14 14:52:04 2017
Module time:
	user time   =     280.99 seconds =       4.68 minutes
	system time =       2.79 seconds =       0.05 minutes
	total time  =        284 seconds =       4.73 minutes
Total time:
	user time   =    1725.04 seconds =      28.75 minutes
	system time =      17.47 seconds =       0.29 minutes
	total time  =       1742 seconds =      29.03 minutes

			-----------------------------------------
			 OPTKING 2.0: for geometry optimizations 
			  - R.A. King,  Bethel University        
			-----------------------------------------

	Previous internal coordinate definitions found.
	---Fragment 1 Geometry and Gradient---
	 H          -4.1638596639        0.2886418237       -1.7836052717
	 H          -3.4744278593        3.5415876150       -1.6920639181
	 H          -1.6404497713        1.4980584232       -3.5743942738
	 C          -2.6360536625        1.6670111590       -1.7829790647
	 H           0.6767348031        2.5983509361        0.3161994605
	 H          -1.7998179598        1.5073283563        2.1946872935
	 C          -0.8369919085        1.2006788380        0.4010764380
	 H          -0.7372116247       -2.7132784435        1.5565141184
	 H           0.1698334788       -2.1959544540       -1.5679061863
	 C           0.3333249695       -1.4400997677        0.3436365749
	 H           3.8911023724       -3.3435175085        1.0759737444
	 H           3.3494241841       -0.6757733978        2.9877979950
	 H           4.1940576297       -0.2842089090       -0.2013294153
	 C           3.1006349977       -1.4461706967        1.0960586405
	             0.0000135548        0.0000014078        0.0000046426
	            -0.0000011169       -0.0000060163       -0.0000050685
	            -0.0000188723        0.0000020477       -0.0000053007
	             0.0020242005        0.0009181842       -0.0014253344
	            -0.0000269102       -0.0000270114        0.0000261796
	            -0.0000106153        0.0000078877       -0.0000045186
	            -0.0024941489       -0.0010810704        0.0010016548
	             0.0000105387       -0.0000080088        0.0000045503
	            -0.0000189511        0.0000060440        0.0000431051
	            -0.0001373014       -0.0001717457        0.0028891783
	             0.0000025856        0.0000074434        0.0000018039
	            -0.0000098410        0.0000001618       -0.0000113316
	             0.0000130653       -0.0000047787        0.0000134272
	             0.0006538122        0.0003554547       -0.0025329881

	---Fragment 1 Intrafragment Coordinates---
	 - Coordinate -           - BOHR/RAD -       - ANG/DEG -
	 R(1,4)           =         2.057691	       1.088883
	 R(2,4)           =         2.055523	       1.087736
	 R(3,4)           =         2.056439	       1.088221
	 R(4,7)           =         2.867784	       1.517566
	 R(5,7)           =         2.062052	       1.091191
	 R(6,7)           =         2.058667	       1.089399
	 R(7,10)          =         2.889057	       1.528823
	 R(8,10)          =         2.058666	       1.089399
	 R(9,10)          =         2.062048	       1.091189
	 R(10,14)         =         2.867783	       1.517566
	 R(11,14)         =         2.055521	       1.087735
	 R(12,14)         =         2.057689	       1.088882
	 R(13,14)         =         2.056440	       1.088221
	 B(1,4,2)         =         1.883965	     107.943243
	 B(1,4,3)         =         1.879860	     107.708069
	 B(1,4,7)         =         1.935949	     110.921729
	 B(2,4,3)         =         1.886956	     108.114593
	 B(2,4,7)         =         1.950321	     111.745168
	 B(3,4,7)         =         1.924480	     110.264607
	 B(4,7,5)         =         1.895420	     108.599584
	 B(4,7,6)         =         1.924000	     110.237087
	 B(4,7,10)        =         1.968844	     112.806445
	 B(5,7,6)         =         1.852744	     106.154428
	 B(5,7,10)        =         1.897973	     108.745814
	 B(6,7,10)        =         1.920834	     110.055665
	 B(7,10,8)        =         1.920837	     110.055864
	 B(7,10,9)        =         1.897970	     108.745647
	 B(7,10,14)       =         1.968836	     112.806018
	 B(8,10,9)        =         1.852747	     106.154601
	 B(8,10,14)       =         1.924004	     110.237310
	 B(9,10,14)       =         1.895421	     108.599611
	 B(10,14,11)      =         1.950317	     111.744943
	 B(10,14,12)      =         1.935946	     110.921544
	 B(10,14,13)      =         1.924479	     110.264530
	 B(11,14,12)      =         1.883967	     107.943332
	 B(11,14,13)      =         1.886956	     108.114621
	 B(12,14,13)      =         1.879867	     107.708470
	 D(1,4,7,5)       =         3.126166	     179.116142
	 D(1,4,7,6)       =        -1.134029	     -64.975086
	 D(1,4,7,10)      =         1.020945	      58.495846
	 D(2,4,7,5)       =        -1.053858	     -60.381643
	 D(2,4,7,6)       =         0.969131	      55.527129
	 D(2,4,7,10)      =         3.124106	     178.998061
	 D(3,4,7,5)       =         1.045263	      59.889187
	 D(3,4,7,6)       =         3.068253	     175.797959
	 D(3,4,7,10)      =        -1.059958	     -60.731109
	 D(4,7,10,8)      =        -1.675043	     -95.972915
	 D(4,7,10,9)      =         0.347656	      19.919237
	 D(4,7,10,14)     =         2.451412	     140.455545
	 D(5,7,10,8)      =         2.504380	     143.490423
	 D(5,7,10,9)      =        -1.756105	    -100.617425
	 D(5,7,10,14)     =         0.347650	      19.918882
	 D(6,7,10,8)      =         0.481685	      27.598494
	 D(6,7,10,9)      =         2.504384	     143.490646
	 D(6,7,10,14)     =        -1.675046	     -95.973047
	 D(7,10,14,11)    =         3.124119	     178.998824
	 D(7,10,14,12)    =         1.020961	      58.496776
	 D(7,10,14,13)    =        -1.059947	     -60.730511
	 D(8,10,14,11)    =         0.969142	      55.527774
	 D(8,10,14,12)    =        -1.134015	     -64.974274
	 D(8,10,14,13)    =         3.068262	     175.798438
	 D(9,10,14,11)    =        -1.053853	     -60.381345
	 D(9,10,14,12)    =         3.126175	     179.116607
	 D(9,10,14,13)    =         1.045266	      59.889320

	Current energy   :      -158.1575448253

	Energy change for the previous step:
		Projected    :        -0.0000274476
		Actual       :        -0.0000052994

	Performing BFGS update.
	Previous computed or guess Hessian on step 1.
	Steps to be used in Hessian update: 5 4
	Adding user-defined constraint: Fragment 1; Coordinate 49:
		Value =     2.451412; Fixed value    =     2.443460
		Force =    -0.004970; Force constant =     0.625000
	Removing off-diagonal coupling between coordinate 49 and others.
	Taking RFO optimization step.
	Going to follow RFO solution 1.
	Rejecting RFO root 1 because normalization gives large value.
	Rejecting RFO root 2 because normalization gives large value.
	Using RFO vector 3.
	Norm of target step-size    0.00058
	Projected energy change by RFO approximation:        -0.0000000284

	Back-transformation to cartesian coordinates...
	Successfully converged to displaced geometry.

	--- Internal Coordinate Step in ANG or DEG, aJ/ANG or AJ/DEG ---
	 ---------------------------------------------------------------------------
	   Coordinate                Previous        Force       Change         New 
	   ----------                --------       ------       ------       ------
	    1 R(1,4)          =      1.088883     0.000091     0.000026     1.088909
	    2 R(2,4)          =      1.087736     0.000043     0.000017     1.087753
	    3 R(3,4)          =      1.088221     0.000039     0.000020     1.088240
	    4 R(4,7)          =      1.517566     0.000223     0.000043     1.517609
	    5 R(5,7)          =      1.091191     0.000322     0.000050     1.091241
	    6 R(6,7)          =      1.089399    -0.000018     0.000004     1.089403
	    7 R(7,10)         =      1.528823    -0.000258    -0.000055     1.528769
	    8 R(8,10)         =      1.089399    -0.000018     0.000004     1.089403
	    9 R(9,10)         =      1.091189     0.000335     0.000052     1.091241
	   10 R(10,14)        =      1.517566     0.000229     0.000044     1.517610
	   11 R(11,14)        =      1.087735     0.000049     0.000018     1.087753
	   12 R(12,14)        =      1.088882     0.000095     0.000027     1.088909
	   13 R(13,14)        =      1.088221     0.000035     0.000019     1.088240
	   14 B(1,4,2)        =    107.943243    -0.000000     0.000115   107.943358
	   15 B(1,4,3)        =    107.708069     0.000001     0.003069   107.711138
	   16 B(1,4,7)        =    110.921729     0.000001     0.008756   110.930485
	   17 B(2,4,3)        =    108.114593     0.000001     0.000952   108.115545
	   18 B(2,4,7)        =    111.745168    -0.000001    -0.003851   111.741318
	   19 B(3,4,7)        =    110.264607    -0.000002    -0.008791   110.255816
	   20 B(4,7,5)        =    108.599584    -0.000005    -0.000361   108.599223
	   21 B(4,7,6)        =    110.237087     0.000005    -0.001792   110.235295
	   22 B(4,7,10)       =    112.806445     0.000000    -0.000371   112.806075
	   23 B(5,7,6)        =    106.154428     0.000000     0.006288   106.160716
	   24 B(5,7,10)       =    108.745814     0.000000    -0.003260   108.742554
	   25 B(6,7,10)       =    110.055665    -0.000001    -0.000118   110.055546
	   26 B(7,10,8)       =    110.055864    -0.000001    -0.000443   110.055421
	   27 B(7,10,9)       =    108.745647     0.000000    -0.003020   108.742628
	   28 B(7,10,14)      =    112.806018     0.000000     0.000023   112.806041
	   29 B(8,10,9)       =    106.154601     0.000000     0.006185   106.160787
	   30 B(8,10,14)      =    110.237310     0.000005    -0.002002   110.235308
	   31 B(9,10,14)      =    108.599611    -0.000005    -0.000377   108.599234
	   32 B(10,14,11)     =    111.744943    -0.000000    -0.003614   111.741329
	   33 B(10,14,12)     =    110.921544     0.000002     0.008892   110.930436
	   34 B(10,14,13)     =    110.264530    -0.000002    -0.008854   110.255676
	   35 B(11,14,12)     =    107.943332    -0.000000     0.000044   107.943376
	   36 B(11,14,13)     =    108.114621     0.000001     0.000947   108.115568
	   37 B(12,14,13)     =    107.708470     0.000000     0.002817   107.711286
	   38 D(1,4,7,5)      =    179.116142    -0.000000    -0.000480   179.115662
	   39 D(1,4,7,6)      =    -64.975086    -0.000000     0.005873   -64.969214
	   40 D(1,4,7,10)     =     58.495846     0.000000     0.004111    58.499957
	   41 D(2,4,7,5)      =    -60.381643    -0.000000     0.003079   -60.378564
	   42 D(2,4,7,6)      =     55.527129    -0.000000     0.009431    55.536561
	   43 D(2,4,7,10)     =    178.998061     0.000001     0.007670   179.005731
	   44 D(3,4,7,5)      =     59.889187    -0.000000    -0.004213    59.884973
	   45 D(3,4,7,6)      =    175.797959    -0.000000     0.002139   175.800098
	   46 D(3,4,7,10)     =    -60.731109     0.000000     0.000378   -60.730731
	   47 D(4,7,10,8)     =    -95.972915    -0.000001    -0.003364   -95.976278
	   48 D(4,7,10,9)     =     19.919237    -0.000001     0.002092    19.921330
	   49 D(4,7,10,14)    =    140.455545    -0.000002    -0.000447   140.455098
	   50 D(5,7,10,8)     =    143.490423     0.000000    -0.000427   143.489996
	   51 D(5,7,10,9)     =   -100.617425     0.000000     0.005029  -100.612396
	   52 D(5,7,10,14)    =     19.918882    -0.000001     0.002491    19.921373
	   53 D(6,7,10,8)     =     27.598494     0.000000    -0.006048    27.592446
	   54 D(6,7,10,9)     =    143.490646     0.000000    -0.000592   143.490054
	   55 D(6,7,10,14)    =    -95.973047    -0.000001    -0.003131   -95.976178
	   56 D(7,10,14,11)   =    178.998824     0.000000     0.005844   179.004668
	   57 D(7,10,14,12)   =     58.496776     0.000000     0.002123    58.498898
	   58 D(7,10,14,13)   =    -60.730511     0.000000    -0.001342   -60.731853
	   59 D(8,10,14,11)   =     55.527774    -0.000000     0.007901    55.535675
	   60 D(8,10,14,12)   =    -64.974274    -0.000000     0.004179   -64.970095
	   61 D(8,10,14,13)   =    175.798438    -0.000000     0.000715   175.799153
	   62 D(9,10,14,11)   =    -60.381345    -0.000000     0.001797   -60.379548
	   63 D(9,10,14,12)   =    179.116607    -0.000000    -0.001925   179.114682
	   64 D(9,10,14,13)   =     59.889320    -0.000000    -0.005389    59.883930
	 ---------------------------------------------------------------------------
	Successfully symmetrized geometry.
	 Forces used to impose fixed constraints are not included.
	  Forces zeroed: 49 

  ==> Convergence Check <==

  Measures of convergence in internal coordinates in au.
  Criteria marked as inactive (o), active & met (*), and active & unmet ( ).
  ---------------------------------------------------------------------------------------------
   Step     Total Energy     Delta E     MAX Force     RMS Force      MAX Disp      RMS Disp   
  ---------------------------------------------------------------------------------------------
    Convergence Criteria    1.00e-06 *    3.00e-04 *             o    1.20e-03 *             o
  ---------------------------------------------------------------------------------------------
      6    -158.15754483   -5.30e-06      6.74e-05 *    2.76e-05 o    1.65e-04 *    7.30e-05 o  ~
  ---------------------------------------------------------------------------------------------


  **** Optimization is complete! (in 6 steps) ****

  ==> Optimization Summary <==

  Measures of convergence in internal coordinates in au.
  --------------------------------------------------------------------------------------------------------------- ~
   Step         Total Energy             Delta E       MAX Force       RMS Force        MAX Disp        RMS Disp  ~
  --------------------------------------------------------------------------------------------------------------- ~
      1    -158.153249530362   -158.153249530362      0.01265409      0.00553449      0.02619597      0.01251396  ~
      2    -158.156216825218     -0.002967294857      0.00472509      0.00219339      0.03632766      0.01251562  ~
      3    -158.157216262343     -0.000999437125      0.00176616      0.00065259      0.04790545      0.01252762  ~
      4    -158.157488850254     -0.000272587911      0.00089994      0.00021148      0.02740994      0.01250988  ~
      5    -158.157539525892     -0.000050675637      0.00016443      0.00006413      0.00635137      0.00260266  ~
      6    -158.157544825292     -0.000005299400      0.00014141      0.00003279      0.00016461      0.00007301  ~
  --------------------------------------------------------------------------------------------------------------- ~

	Writing optimization data to binary file.
	Final energy is   -158.1575448252919
	Final (previous) structure:
	Cartesian Geometry (in Angstrom)
	    H    -2.2034196339   0.1527426745  -0.9438432589
	    H    -1.8385880360   1.8741274481  -0.8954016609
	    H    -0.8680886308   0.7927383747  -1.8914879842
	    C    -1.3949395188   0.8821443118  -0.9435118844
	    H     0.3581126340   1.3749880953   0.1673255479
	    H    -0.9524226440   0.7976438120   1.1613784957
	    C    -0.4429170418   0.6353718759   0.2122405099
	    H    -0.3901155897  -1.4358051128   0.8236717963
	    H     0.0898720062  -1.1620490481  -0.8297002190
	    C     0.1763879769  -0.7620679751   0.1818446435
	    H     2.0590826918  -1.7693132620   0.5693807826
	    H     1.7724389401  -0.3576038803   1.5810746028
	    H     2.2193997092  -0.1503968771  -0.1065389380
	    C     1.6407853730  -0.7652805725   0.5800092518
	Saving final (previous) structure.
			--------------------------
			 OPTKING Finished Execution 
			--------------------------

    Final optimized geometry and variables:
    Molecular point group: c1
    Full point group: C1

    Geometry (in Angstrom), charge = 0, multiplicity = 1:

    H           -2.203419633910     0.152742674522    -0.943843258881
    H           -1.838588036022     1.874127448073    -0.895401660912
    H           -0.868088630811     0.792738374711    -1.891487984192
    C           -1.394939518841     0.882144311834    -0.943511884433
    H            0.358112634045     1.374988095290     0.167325547879
    H           -0.952422643952     0.797643812030     1.161378495697
    C           -0.442917041757     0.635371875915     0.212240509902
    H           -0.390115589702    -1.435805112838     0.823671796315
    H            0.089872006231    -1.162049048150    -0.829700219006
    C            0.176387976900    -0.762067975140     0.181844643475
    H            2.059082691790    -1.769313262024     0.569380782569
    H            1.772438940108    -0.357603880310     1.581074602819
    H            2.219399709164    -0.150396877116    -0.106538938017
    C            1.640785372954    -0.765280572450     0.580009251843

	Cleaning optimization helper files.

*** Psi4 exiting successfully. Buy a developer a beer!
