
    -----------------------------------------------------------------------
          Psi4: An Open-Source Ab Initio Electronic Structure Package
                               Psi4 1.1 release

                         Git: Rev {HEAD} add49b9 


    R. M. Parrish, L. A. Burns, D. G. A. Smith, A. C. Simmonett,
    A. E. DePrince III, E. G. Hohenstein, U. Bozkaya, A. Yu. Sokolov,
    R. Di Remigio, R. M. Richard, J. F. Gonthier, A. M. James,
    H. R. McAlexander, A. Kumar, M. Saitow, X. Wang, B. P. Pritchard,
    P. Verma, H. F. Schaefer III, K. Patkowski, R. A. King, E. F. Valeev,
    F. A. Evangelista, J. M. Turney, T. D. Crawford, and C. D. Sherrill,
    J. Chem. Theory Comput. in press (2017).
    (doi: 10.1021/acs.jctc.7b00174)

    -----------------------------------------------------------------------


    Psi4 started on: Wednesday, 14 June 2017 02:20PM

    Process ID:   4467
    PSIDATADIR: /cbio/jclab/home/chayas/anaconda/envs/py35/share/psi4
    Memory:     500.0 MiB
    Threads:    1
    
  ==> Input File <==

--------------------------------------------------------------------------

memory 5000 mb

molecule butane {
  symmetry C1
  0 1 
  H      1.626   2.178   -8.417
  H      2.051   1.542   -9.989
  H      1.716   0.451   -8.666
  C      2.142   1.395   -8.932
  H      4.169   2.051   -9.210
  H      3.731   1.788   -7.539
  C      3.631   1.416   -8.537
  H      3.665   -0.647   -7.940
  H      4.104   -0.384   -9.610
  C      4.203   -0.012   -8.612
  H      6.088   -0.983   -8.270
  H      5.791   0.381   -7.220
  H      6.230   0.644   -8.890
  C      5.691   0.009   -8.218
  units Angstrom
}

dih_string = "10 7 4 3 30"
set optking fixed_dihedral = $dih_string

optimize('MP2/aug-cc-pvtz')
--------------------------------------------------------------------------

  Memory set to   4.657 GiB by Python driver.
gradient() will perform analytic gradient computation.

*** tstart() called on gpu-2-14.local
*** at Wed Jun 14 14:20:27 2017

    SCF Algorithm Type (re)set to DF.

*** tstart() called on gpu-2-14.local
*** at Wed Jun 14 14:20:27 2017

   => Loading Basis Set <=

    Name: AUG-CC-PVTZ
    Role: ORBITAL
    Keyword: BASIS
    atoms 1-3, 5-6, 8-9, 11-13 entry H          line    34 file /cbio/jclab/home/chayas/anaconda/envs/py35/share/psi4/basis/aug-cc-pvtz.gbs 
    atoms 4, 7, 10, 14         entry C          line   221 file /cbio/jclab/home/chayas/anaconda/envs/py35/share/psi4/basis/aug-cc-pvtz.gbs 


         ---------------------------------------------------------
                                   SCF
            by Justin Turney, Rob Parrish, and Andy Simmonett
                              RHF Reference
                        1 Threads,   4768 MiB Core
         ---------------------------------------------------------

  ==> Geometry <==

    Molecular point group: c1
    Full point group: C1

    Geometry (in Angstrom), charge = 0, multiplicity = 1:

       Center              X                  Y                   Z               Mass       
    ------------   -----------------  -----------------  -----------------  -----------------
           H         -2.290810735087     1.475982647118     0.157810735087     1.007825032070
           H         -1.865810735087     0.839982647118    -1.414189264913     1.007825032070
           H         -2.200810735087    -0.251017352882    -0.091189264913     1.007825032070
           C         -1.774810735087     0.692982647118    -0.357189264913    12.000000000000
           H          0.252189264913     1.348982647118    -0.635189264913     1.007825032070
           H         -0.185810735087     1.085982647118     1.035810735087     1.007825032070
           C         -0.285810735087     0.713982647118     0.037810735087    12.000000000000
           H         -0.251810735087    -1.349017352882     0.634810735087     1.007825032070
           H          0.187189264913    -1.086017352882    -1.035189264913     1.007825032070
           C          0.286189264913    -0.714017352882    -0.037189264913    12.000000000000
           H          2.171189264913    -1.685017352882     0.304810735087     1.007825032070
           H          1.874189264913    -0.321017352882     1.354810735087     1.007825032070
           H          2.313189264913    -0.058017352882    -0.315189264913     1.007825032070
           C          1.774189264913    -0.693017352882     0.356810735087    12.000000000000

  Running in c1 symmetry.

  Rotational constants: A =      0.76940  B =      0.12465  C =      0.11638 [cm^-1]
  Rotational constants: A =  23066.08970  B =   3736.80607  C =   3489.02957 [MHz]
  Nuclear repulsion =  131.834422788411899

  Charge       = 0
  Multiplicity = 1
  Electrons    = 34
  Nalpha       = 17
  Nbeta        = 17

  ==> Algorithm <==

  SCF Algorithm Type is DF.
  DIIS enabled.
  MOM disabled.
  Fractional occupation disabled.
  Guess Type is SAD.
  Energy threshold   = 1.00e-10
  Density threshold  = 1.00e-10
  Integral threshold = 0.00e+00

  ==> Primary Basis <==

  Basis Set: AUG-CC-PVTZ
    Blend: AUG-CC-PVTZ
    Number of shells: 146
    Number of basis function: 414
    Number of Cartesian functions: 470
    Spherical Harmonics?: true
    Max angular momentum: 3

   => Loading Basis Set <=

    Name: (AUG-CC-PVTZ AUX)
    Role: JKFIT
    Keyword: DF_BASIS_SCF
    atoms 1-3, 5-6, 8-9, 11-13 entry H          line    69 file /cbio/jclab/home/chayas/anaconda/envs/py35/share/psi4/basis/aug-cc-pvtz-jkfit.gbs 
    atoms 4, 7, 10, 14         entry C          line   161 file /cbio/jclab/home/chayas/anaconda/envs/py35/share/psi4/basis/aug-cc-pvtz-jkfit.gbs 

  ==> Pre-Iterations <==

   -------------------------------------------------------
    Irrep   Nso     Nmo     Nalpha   Nbeta   Ndocc  Nsocc
   -------------------------------------------------------
     A        414     414       0       0       0       0
   -------------------------------------------------------
    Total     414     414      17      17      17       0
   -------------------------------------------------------

  ==> Integral Setup <==

  ==> DFJK: Density-Fitted J/K Matrices <==

    J tasked:                  Yes
    K tasked:                  Yes
    wK tasked:                  No
    OpenMP threads:              1
    Integrals threads:           1
    Memory (MB):              3576
    Algorithm:                Core
    Integral Cache:           NONE
    Schwarz Cutoff:          1E-12
    Fitting Condition:       1E-12

   => Auxiliary Basis Set <=

  Basis Set: (AUG-CC-PVTZ AUX)
    Blend: AUG-CC-PVTZ-JKFIT
    Number of shells: 260
    Number of basis function: 876
    Number of Cartesian functions: 1074
    Spherical Harmonics?: true
    Max angular momentum: 4

  Minimum eigenvalue in the overlap matrix is 8.5654094831E-06.
  Using Symmetric Orthogonalization.

  SCF Guess: Superposition of Atomic Densities via on-the-fly atomic UHF.

  ==> Iterations <==

                           Total Energy        Delta E     RMS |[F,P]|

   @DF-RHF iter   0:  -159.25235192332485   -1.59252e+02   9.89134e-03 
   @DF-RHF iter   1:  -157.25319250260657    1.99916e+00   8.33593e-04 
   @DF-RHF iter   2:  -157.34119418205785   -8.80017e-02   2.42564e-04 DIIS
   @DF-RHF iter   3:  -157.34884596429248   -7.65178e-03   9.19272e-05 DIIS
   @DF-RHF iter   4:  -157.34994069542191   -1.09473e-03   2.10147e-05 DIIS
   @DF-RHF iter   5:  -157.35001850535110   -7.78099e-05   4.03042e-06 DIIS
   @DF-RHF iter   6:  -157.35002234038069   -3.83503e-06   9.10785e-07 DIIS
   @DF-RHF iter   7:  -157.35002250856695   -1.68186e-07   2.25181e-07 DIIS
   @DF-RHF iter   8:  -157.35002251735762   -8.79066e-09   5.55705e-08 DIIS
   @DF-RHF iter   9:  -157.35002251795325   -5.95634e-10   1.25769e-08 DIIS
   @DF-RHF iter  10:  -157.35002251798636   -3.31113e-11   2.64521e-09 DIIS
   @DF-RHF iter  11:  -157.35002251798866   -2.30216e-12   7.11650e-10 DIIS
   @DF-RHF iter  12:  -157.35002251798937   -7.10543e-13   1.92527e-10 DIIS
   @DF-RHF iter  13:  -157.35002251798997   -5.96856e-13   4.88215e-11 DIIS

  ==> Post-Iterations <==

    Orbital Energies (a.u.)
    -----------------------

    Doubly Occupied:                                                      

       1A    -11.207114     2A    -11.206050     3A    -11.198426  
       4A    -11.197893     5A     -1.070709     6A     -0.981034  
       7A     -0.861345     8A     -0.795239     9A     -0.646917  
      10A     -0.587663    11A     -0.576179    12A     -0.571282  
      13A     -0.513312    14A     -0.503799    15A     -0.474049  
      16A     -0.468841    17A     -0.441063  

    Virtual:                                                              

      18A      0.032303    19A      0.037459    20A      0.039430  
      21A      0.040613    22A      0.057676    23A      0.058567  
      24A      0.060006    25A      0.060933    26A      0.080239  
      27A      0.082824    28A      0.100559    29A      0.112609  
      30A      0.122955    31A      0.130604    32A      0.137211  
      33A      0.142114    34A      0.142668    35A      0.145910  
      36A      0.148330    37A      0.160208    38A      0.163761  
      39A      0.166563    40A      0.171477    41A      0.201567  
      42A      0.205497    43A      0.212826    44A      0.228862  
      45A      0.244212    46A      0.249838    47A      0.253651  
      48A      0.268706    49A      0.278335    50A      0.283183  
      51A      0.286721    52A      0.313602    53A      0.318418  
      54A      0.330040    55A      0.337585    56A      0.345246  
      57A      0.354543    58A      0.358212    59A      0.358452  
      60A      0.365498    61A      0.372465    62A      0.373201  
      63A      0.381393    64A      0.386589    65A      0.390438  
      66A      0.391212    67A      0.398047    68A      0.401773  
      69A      0.405942    70A      0.412005    71A      0.419224  
      72A      0.429975    73A      0.443500    74A      0.449304  
      75A      0.452072    76A      0.461858    77A      0.462154  
      78A      0.464868    79A      0.472925    80A      0.485430  
      81A      0.488347    82A      0.496926    83A      0.501762  
      84A      0.505736    85A      0.514122    86A      0.515791  
      87A      0.519575    88A      0.532117    89A      0.536967  
      90A      0.542679    91A      0.548566    92A      0.555622  
      93A      0.569337    94A      0.572626    95A      0.580956  
      96A      0.590574    97A      0.607538    98A      0.609428  
      99A      0.611983   100A      0.633844   101A      0.640578  
     102A      0.660046   103A      0.678317   104A      0.682388  
     105A      0.698305   106A      0.719542   107A      0.760728  
     108A      0.776806   109A      0.799135   110A      0.812206  
     111A      0.820557   112A      0.828263   113A      0.835726  
     114A      0.846144   115A      0.847983   116A      0.860611  
     117A      0.867496   118A      0.875316   119A      0.881446  
     120A      0.889791   121A      0.895825   122A      0.903450  
     123A      0.910388   124A      0.922174   125A      0.926921  
     126A      0.931049   127A      0.933727   128A      0.937356  
     129A      0.946246   130A      0.962544   131A      0.963321  
     132A      0.973875   133A      0.979357   134A      0.987805  
     135A      0.995052   136A      1.017563   137A      1.026334  
     138A      1.032890   139A      1.047374   140A      1.068583  
     141A      1.081583   142A      1.084458   143A      1.089718  
     144A      1.106121   145A      1.111463   146A      1.117886  
     147A      1.126560   148A      1.135410   149A      1.148709  
     150A      1.155464   151A      1.159073   152A      1.173246  
     153A      1.179722   154A      1.190253   155A      1.200061  
     156A      1.218816   157A      1.226865   158A      1.234097  
     159A      1.243063   160A      1.250294   161A      1.262250  
     162A      1.268595   163A      1.274873   164A      1.281485  
     165A      1.298121   166A      1.305012   167A      1.317518  
     168A      1.325832   169A      1.339116   170A      1.358667  
     171A      1.370558   172A      1.388672   173A      1.407254  
     174A      1.416979   175A      1.431596   176A      1.445341  
     177A      1.461573   178A      1.481070   179A      1.501092  
     180A      1.511039   181A      1.521964   182A      1.524392  
     183A      1.538528   184A      1.556015   185A      1.569414  
     186A      1.584839   187A      1.598519   188A      1.611856  
     189A      1.636644   190A      1.642985   191A      1.652532  
     192A      1.661409   193A      1.674179   194A      1.694087  
     195A      1.695947   196A      1.700501   197A      1.712983  
     198A      1.719642   199A      1.731283   200A      1.742029  
     201A      1.745288   202A      1.759469   203A      1.765614  
     204A      1.772645   205A      1.780672   206A      1.787036  
     207A      1.799425   208A      1.808623   209A      1.822126  
     210A      1.857379   211A      1.870321   212A      1.873513  
     213A      1.891166   214A      1.904647   215A      1.917251  
     216A      1.929695   217A      1.962501   218A      1.970625  
     219A      1.992131   220A      2.000160   221A      2.002255  
     222A      2.017681   223A      2.030449   224A      2.041904  
     225A      2.047437   226A      2.063340   227A      2.086732  
     228A      2.092888   229A      2.109030   230A      2.159756  
     231A      2.169629   232A      2.193443   233A      2.198590  
     234A      2.204349   235A      2.233580   236A      2.260463  
     237A      2.266771   238A      2.284728   239A      2.292969  
     240A      2.309508   241A      2.331494   242A      2.339377  
     243A      2.341148   244A      2.365167   245A      2.368155  
     246A      2.377967   247A      2.413166   248A      2.444969  
     249A      2.462799   250A      2.480701   251A      2.497895  
     252A      2.551777   253A      2.602606   254A      2.613300  
     255A      2.628667   256A      2.667058   257A      2.756043  
     258A      2.889600   259A      2.950175   260A      3.015470  
     261A      3.225008   262A      3.247366   263A      3.310175  
     264A      3.360059   265A      3.393070   266A      3.424568  
     267A      3.444964   268A      3.462048   269A      3.464556  
     270A      3.486775   271A      3.528755   272A      3.556560  
     273A      3.565060   274A      3.576875   275A      3.597997  
     276A      3.605342   277A      3.629643   278A      3.668641  
     279A      3.684390   280A      3.695782   281A      3.702345  
     282A      3.712304   283A      3.738724   284A      3.742592  
     285A      3.760026   286A      3.775324   287A      3.780028  
     288A      3.798705   289A      3.822516   290A      3.830485  
     291A      3.845713   292A      3.869054   293A      3.877686  
     294A      3.887062   295A      3.912671   296A      3.924173  
     297A      3.953445   298A      3.971886   299A      3.977101  
     300A      3.989219   301A      4.010423   302A      4.016793  
     303A      4.026192   304A      4.028156   305A      4.051869  
     306A      4.062324   307A      4.077269   308A      4.089454  
     309A      4.135780   310A      4.169694   311A      4.190737  
     312A      4.202658   313A      4.231523   314A      4.245185  
     315A      4.251881   316A      4.274091   317A      4.285906  
     318A      4.295893   319A      4.321128   320A      4.327928  
     321A      4.343078   322A      4.379063   323A      4.383381  
     324A      4.412538   325A      4.443627   326A      4.454291  
     327A      4.521260   328A      4.545123   329A      4.571551  
     330A      4.589800   331A      4.619759   332A      4.664054  
     333A      4.676519   334A      4.691801   335A      4.715042  
     336A      4.732174   337A      4.743125   338A      4.751232  
     339A      4.774603   340A      4.788533   341A      4.809840  
     342A      4.867111   343A      4.869614   344A      4.887190  
     345A      4.892846   346A      4.933575   347A      4.948131  
     348A      4.960578   349A      4.982704   350A      5.009751  
     351A      5.042412   352A      5.064990   353A      5.082883  
     354A      5.100826   355A      5.135055   356A      5.161153  
     357A      5.172451   358A      5.191910   359A      5.221737  
     360A      5.235485   361A      5.252513   362A      5.274839  
     363A      5.283915   364A      5.311576   365A      5.333089  
     366A      5.334569   367A      5.390049   368A      5.390366  
     369A      5.437595   370A      5.457316   371A      5.462854  
     372A      5.467194   373A      5.501016   374A      5.528018  
     375A      5.584096   376A      5.605927   377A      5.609687  
     378A      5.661375   379A      5.673500   380A      5.681151  
     381A      5.701863   382A      5.756816   383A      5.762919  
     384A      5.793482   385A      5.814851   386A      5.856373  
     387A      5.898875   388A      5.927265   389A      5.966540  
     390A      6.021884   391A      6.124136   392A      6.151666  
     393A      6.173125   394A      6.213084   395A      6.228947  
     396A      6.264620   397A      6.268262   398A      6.329201  
     399A      6.332348   400A      6.362630   401A      6.393965  
     402A      6.462225   403A      6.560425   404A      6.594956  
     405A      6.745967   406A      6.784369   407A      6.833865  
     408A      6.855424   409A      6.858457   410A      6.983113  
     411A     18.127622   412A     18.328301   413A     18.853969  
     414A     19.198913  

    Final Occupation by Irrep:
              A 
    DOCC [    17 ]

  Energy converged.

  @DF-RHF Final Energy:  -157.35002251798997

   => Energetics <=

    Nuclear Repulsion Energy =            131.8344227884118993
    One-Electron Energy =                -471.7670624875856902
    Two-Electron Energy =                 182.5826171811838492
    DFT Exchange-Correlation Energy =       0.0000000000000000
    Empirical Dispersion Energy =           0.0000000000000000
    PCM Polarization Energy =               0.0000000000000000
    EFP Energy =                            0.0000000000000000
    Total Energy =                       -157.3500225179899701



Properties will be evaluated at   0.000000,   0.000000,   0.000000 Bohr

Properties computed using the SCF density matrix

  Nuclear Dipole Moment: (a.u.)
     X:     0.0027      Y:     0.0008      Z:    -0.0027

  Electronic Dipole Moment: (a.u.)
     X:    -0.0018      Y:    -0.0009      Z:     0.0016

  Dipole Moment: (a.u.)
     X:     0.0009      Y:    -0.0001      Z:    -0.0011     Total:     0.0014

  Dipole Moment: (Debye)
     X:     0.0023      Y:    -0.0003      Z:    -0.0028     Total:     0.0036


*** tstop() called on gpu-2-14.local at Wed Jun 14 14:22:18 2017
Module time:
	user time   =      97.47 seconds =       1.62 minutes
	system time =       0.70 seconds =       0.01 minutes
	total time  =        111 seconds =       1.85 minutes
Total time:
	user time   =      97.48 seconds =       1.62 minutes
	system time =       0.70 seconds =       0.01 minutes
	total time  =        111 seconds =       1.85 minutes

  //>>>>>>>>>>>>>>>>>>>>>>>>>>>>>>>>>>>//
  //               DFMP2               //
  //<<<<<<<<<<<<<<<<<<<<<<<<<<<<<<<<<<<//

   => Loading Basis Set <=

    Name: (AUG-CC-PVTZ AUX)
    Role: RIFIT
    Keyword: DF_BASIS_MP2
    atoms 1-3, 5-6, 8-9, 11-13 entry H          line    29 file /cbio/jclab/home/chayas/anaconda/envs/py35/share/psi4/basis/aug-cc-pvtz-ri.gbs 
    atoms 4, 7, 10, 14         entry C          line   147 file /cbio/jclab/home/chayas/anaconda/envs/py35/share/psi4/basis/aug-cc-pvtz-ri.gbs 

	 --------------------------------------------------------
	                          DF-MP2                         
	      2nd-Order Density-Fitted Moller-Plesset Theory     
	              RMP2 Wavefunction,   1 Threads             
	                                                         
	        Rob Parrish, Justin Turney, Andy Simmonett,      
	           Ed Hohenstein, and C. David Sherrill          
	 --------------------------------------------------------

   => Auxiliary Basis Set <=

  Basis Set: (AUG-CC-PVTZ AUX)
    Blend: AUG-CC-PVTZ-RI
    Number of shells: 252
    Number of basis function: 884
    Number of Cartesian functions: 1094
    Spherical Harmonics?: true
    Max angular momentum: 4

	 --------------------------------------------------------
	                 NBF =   414, NAUX =   884
	 --------------------------------------------------------
	   CLASS    FOCC     OCC    AOCC    AVIR     VIR    FVIR
	   PAIRS       0      17      17     397     397       0
	 --------------------------------------------------------


         ------------------------------------------------------------
                                     CPHF                           
                                  Rob Parrish                       
         ------------------------------------------------------------

  ==> Geometry <==

    Molecular point group: c1
    Full point group: C1

    Geometry (in Angstrom), charge = 0, multiplicity = 1:

       Center              X                  Y                   Z               Mass       
    ------------   -----------------  -----------------  -----------------  -----------------
           H         -2.290810735087     1.475982647118     0.157810735087     1.007825032070
           H         -1.865810735087     0.839982647118    -1.414189264913     1.007825032070
           H         -2.200810735087    -0.251017352882    -0.091189264913     1.007825032070
           C         -1.774810735087     0.692982647118    -0.357189264913    12.000000000000
           H          0.252189264913     1.348982647118    -0.635189264913     1.007825032070
           H         -0.185810735087     1.085982647118     1.035810735087     1.007825032070
           C         -0.285810735087     0.713982647118     0.037810735087    12.000000000000
           H         -0.251810735087    -1.349017352882     0.634810735087     1.007825032070
           H          0.187189264913    -1.086017352882    -1.035189264913     1.007825032070
           C          0.286189264913    -0.714017352882    -0.037189264913    12.000000000000
           H          2.171189264913    -1.685017352882     0.304810735087     1.007825032070
           H          1.874189264913    -0.321017352882     1.354810735087     1.007825032070
           H          2.313189264913    -0.058017352882    -0.315189264913     1.007825032070
           C          1.774189264913    -0.693017352882     0.356810735087    12.000000000000

  Nuclear repulsion =  131.834422788411899
  Reference energy  = -157.350022517989970

  ==> Basis Set <==

  Basis Set: AUG-CC-PVTZ
    Blend: AUG-CC-PVTZ
    Number of shells: 146
    Number of basis function: 414
    Number of Cartesian functions: 470
    Spherical Harmonics?: true
    Max angular momentum: 3

  ==> CGRSolver (by Rob Parrish) <==

   Number of roots    =         1
   Preconditioning    =    JACOBI
   Convergence cutoff =     1E-06
   Maximum iterations =       100

  ==> CPHFRHamiltonian (by Rob Parrish) <== 

  ==> DFJK: Density-Fitted J/K Matrices <==

    J tasked:                  Yes
    K tasked:                  Yes
    wK tasked:                  No
    OpenMP threads:              1
    Integrals threads:           1
    Memory (MB):              3576
    Algorithm:                Core
    Integral Cache:           NONE
    Schwarz Cutoff:          1E-12
    Fitting Condition:       1E-12

   => Auxiliary Basis Set <=

  Basis Set: (AUG-CC-PVTZ AUX)
    Blend: AUG-CC-PVTZ-JKFIT
    Number of shells: 260
    Number of basis function: 876
    Number of Cartesian functions: 1074
    Spherical Harmonics?: true
    Max angular momentum: 4

  ==> CPHF Iterations <==

  => Iterations <=

             Iter  Converged  Remaining    Residual
  CGR           1          0          1   8.165E-02
  CGR           2          0          1   1.308E-02
  CGR           3          0          1   3.415E-03
  CGR           4          0          1   8.059E-04
  CGR           5          0          1   1.188E-04
  CGR           6          0          1   2.151E-05
  CGR           7          0          1   3.883E-06
  CGR           8          1          0   9.114E-07

    CGRSolver converged.

  ==> DFCorrGrad: Density-Fitted Correlated Gradients <==

    OpenMP threads:              1
    Integrals threads:           1
    Memory (MB):              3576
    Schwarz Cutoff:          0E+00
    Fitting Condition:       1E-12

   => Auxiliary Basis Set <=

  Basis Set: (AUG-CC-PVTZ AUX)
    Blend: AUG-CC-PVTZ-JKFIT
    Number of shells: 260
    Number of basis function: 876
    Number of Cartesian functions: 1074
    Spherical Harmonics?: true
    Max angular momentum: 4

	-----------------------------------------------------------
	 ==================> DF-MP2 Energies <==================== 
	-----------------------------------------------------------
	 Reference Energy          =    -157.3500225179899701 [Eh]
	 Singles Energy            =      -0.0000000000000000 [Eh]
	 Same-Spin Energy          =      -0.1654320683651321 [Eh]
	 Opposite-Spin Energy      =      -0.6391175834300757 [Eh]
	 Correlation Energy        =      -0.8045496517952079 [Eh]
	 Total Energy              =    -158.1545721697851832 [Eh]
	-----------------------------------------------------------
	 ================> DF-SCS-MP2 Energies <================== 
	-----------------------------------------------------------
	 SCS Same-Spin Scale       =       0.3333333333333333 [-]
	 SCS Opposite-Spin Scale   =       1.2000000000000000 [-]
	 SCS Same-Spin Energy      =      -0.0551440227883774 [Eh]
	 SCS Opposite-Spin Energy  =      -0.7669411001160908 [Eh]
	 SCS Correlation Energy    =      -0.8220851229044682 [Eh]
	 SCS Total Energy          =    -158.1721076408944384 [Eh]
	-----------------------------------------------------------


  -Total Gradient:
     Atom            X                  Y                   Z
    ------   -----------------  -----------------  -----------------
       1        0.009755758018    -0.008110853283    -0.002446237362
       2        0.004416274172    -0.000015584565     0.010297473373
       3        0.007580424654     0.009361438089    -0.002919539143
       4       -0.022405944951    -0.006725545034    -0.005689863063
       5       -0.008178104043    -0.008457040894     0.004772008448
       6       -0.003950615930    -0.004515955306    -0.011430902362
       7        0.019391375142     0.030707842452     0.009356548519
       8        0.008008289822     0.007934566967    -0.006448281629
       9        0.003536852498     0.005832974813     0.011768347752
      10       -0.023379663508    -0.031637414196    -0.009793036451
      11       -0.008433037843     0.010038941042    -0.000649671560
      12       -0.003148968315    -0.004052360375    -0.011000409187
      13       -0.007682752250    -0.006545933125     0.006174636943
      14        0.024490112533     0.006184923411     0.008008925720


*** tstop() called on gpu-2-14.local at Wed Jun 14 14:29:46 2017
Module time:
	user time   =     477.89 seconds =       7.96 minutes
	system time =       4.93 seconds =       0.08 minutes
	total time  =        559 seconds =       9.32 minutes
Total time:
	user time   =     477.90 seconds =       7.96 minutes
	system time =       4.93 seconds =       0.08 minutes
	total time  =        559 seconds =       9.32 minutes

			-----------------------------------------
			 OPTKING 2.0: for geometry optimizations 
			  - R.A. King,  Bethel University        
			-----------------------------------------

	Internal coordinates to be generated automatically.
	Detected frag 1 with atoms:  1 2 3 4 5 6 7 8 9 10 11 12 13 14
	---Fragment 1 Bond Connectivity---
	 1 : 4
	 2 : 4
	 3 : 4
	 4 : 1 2 3 7
	 5 : 7
	 6 : 7
	 7 : 4 5 6 10
	 8 : 10
	 9 : 10
	 10 : 7 8 9 14
	 11 : 14
	 12 : 14
	 13 : 14
	 14 : 10 11 12 13

	Assuming in current code that numbering for constraints corresponds to unified fragment.
	Fixed dihedral atom list: 
	    10     7     4     3
	---Fragment 1 Geometry and Gradient---
	 H          -4.3290049116        2.7892029799        0.2982190701
	 H          -3.5258713051        1.5873371594       -2.6724304108
	 H          -4.1589295596       -0.4743540515       -0.1723227369
	 C          -3.3539062270        1.3095474179       -0.6749898883
	 H           0.4765686443        2.5492077611       -1.2003337532
	 H          -0.3511314019        2.0522097881        1.9573986148
	 C          -0.5401040152        1.3492316667        0.0714519342
	 H          -0.4758533266       -2.5492733455        1.1996184355
	 H           0.3537364457       -2.0522753725       -1.9562242064
	 C           0.5408193329       -1.3492972511       -0.0702775258
	 H           4.1029530933       -3.1842213261        0.5760088117
	 H           3.5417044319       -0.6066348809        2.5602212512
	 H           4.3712942042       -0.1096369079       -0.5956213907
	 C           3.3527318186       -1.3096130023        0.6742745706
	             0.0097557580       -0.0081108533       -0.0024462374
	             0.0044162742       -0.0000155846        0.0102974734
	             0.0075804247        0.0093614381       -0.0029195391
	            -0.0224059450       -0.0067255450       -0.0056898631
	            -0.0081781040       -0.0084570409        0.0047720084
	            -0.0039506159       -0.0045159553       -0.0114309024
	             0.0193913751        0.0307078425        0.0093565485
	             0.0080082898        0.0079345670       -0.0064482816
	             0.0035368525        0.0058329748        0.0117683478
	            -0.0233796635       -0.0316374142       -0.0097930365
	            -0.0084330378        0.0100389410       -0.0006496716
	            -0.0031489683       -0.0040523604       -0.0110004092
	            -0.0076827523       -0.0065459331        0.0061746369
	             0.0244901125        0.0061849234        0.0080089257

	Previous optimization step data not found.  Starting new optimization.

	---Fragment 1 Intrafragment Coordinates---
	 - Coordinate -           - BOHR/RAD -       - ANG/DEG -
	 R(1,4)           =         2.021716	       1.069846
	 R(2,4)           =         2.023983	       1.071046
	 R(3,4)           =         2.020654	       1.069284
	 R(4,7)           =         2.911397	       1.540645
	 R(5,7)           =         2.022623	       1.070326
	 R(6,7)           =         2.021555	       1.069761
	 R(7,10)          =         2.910419	       1.540128
	 R(8,10)          =         2.021436	       1.069698
	 R(9,10)          =         2.021379	       1.069668
	 R(10,14)         =         2.909087	       1.539422
	 R(11,14)         =         2.021545	       1.069756
	 R(12,14)         =         2.021555	       1.069761
	 R(13,14)         =         2.022387	       1.070201
	 B(1,4,2)         =         1.910954	     109.489611
	 B(1,4,3)         =         1.911582	     109.525578
	 B(1,4,7)         =         1.910015	     109.435773
	 B(2,4,3)         =         1.910090	     109.440094
	 B(2,4,7)         =         1.910565	     109.467289
	 B(3,4,7)         =         1.910594	     109.468972
	 B(4,7,5)         =         1.909937	     109.431343
	 B(4,7,6)         =         1.911630	     109.528316
	 B(4,7,10)        =         1.911154	     109.501062
	 B(5,7,6)         =         1.910605	     109.469614
	 B(5,7,10)        =         1.910047	     109.437654
	 B(6,7,10)        =         1.910425	     109.459295
	 B(7,10,8)        =         1.910303	     109.452301
	 B(7,10,9)        =         1.910824	     109.482155
	 B(7,10,14)       =         1.911213	     109.504437
	 B(8,10,9)        =         1.910417	     109.458846
	 B(8,10,14)       =         1.910766	     109.478806
	 B(9,10,14)       =         1.910276	     109.450772
	 B(10,14,11)      =         1.910943	     109.488965
	 B(10,14,12)      =         1.911204	     109.503926
	 B(10,14,13)      =         1.911557	     109.524173
	 B(11,14,12)      =         1.910410	     109.458432
	 B(11,14,13)      =         1.910054	     109.438058
	 B(12,14,13)      =         1.909629	     109.413709
	 D(1,4,7,5)       =        -1.571031	     -90.013457
	 D(1,4,7,6)       =         0.523513	      29.995095
	 D(1,4,7,10)      =         2.618584	     150.033802
	 D(2,4,7,5)       =         0.523336	      29.984958
	 D(2,4,7,6)       =         2.617881	     149.993510
	 D(2,4,7,10)      =        -1.570234	     -89.967782
	 D(3,4,7,5)       =         2.617000	     149.943059
	 D(3,4,7,6)       =        -1.571641	     -90.048389
	 D(3,4,7,10)      =         0.523430	      29.990318
	 D(4,7,10,8)      =        -1.047368	     -60.009777
	 D(4,7,10,9)      =         1.046677	      59.970178
	 D(4,7,10,14)     =         3.141107	     179.972182
	 D(5,7,10,8)      =        -3.140871	    -179.958653
	 D(5,7,10,9)      =        -1.046826	     -59.978698
	 D(5,7,10,14)     =         1.047604	      60.023306
	 D(6,7,10,8)      =         1.048439	      60.071149
	 D(6,7,10,9)      =        -3.140701	    -179.948896
	 D(6,7,10,14)     =        -1.046271	     -59.946893
	 D(7,10,14,11)    =         3.141408	     179.989448
	 D(7,10,14,12)    =         1.046747	      59.974196
	 D(7,10,14,13)    =        -1.047335	     -60.007849
	 D(8,10,14,11)    =         1.046982	      59.987626
	 D(8,10,14,12)    =        -1.047680	     -60.027626
	 D(8,10,14,13)    =         3.141424	     179.990329
	 D(9,10,14,11)    =        -1.047012	     -59.989345
	 D(9,10,14,12)    =         3.141512	     179.995403
	 D(9,10,14,13)    =         1.047431	      60.013359

	Current energy   :      -158.1545721698

	Generating empirical Hessian (Schlegel '84) for each fragment.
	Adding user-defined constraint: Fragment 1; Coordinate 46:
		Value =     0.523430; Fixed value    =     0.523599
		Force =     0.000084; Force constant =     0.500000
	Removing off-diagonal coupling between coordinate 46 and others.
	Taking RFO optimization step.
	Going to follow RFO solution 1.
	Using RFO vector 1.

	Determining step-restricting scale parameter for RS-RFO.
	Maximum step size allowed    0.10000

	 Iter      |step|        alpha        rfo_root  
	------------------------------------------------
	    0     0.21455       1.00000           1
	    1     0.16516       4.88377           1
	    2     0.12930      14.65056           1
	    3     0.10883      27.94611           1
	    4     0.10115      35.90670           1
	    5     0.10002      37.27139           1
	    6     0.10000      37.30056           1
	------------------------------------------------
	Norm of target step-size    0.10000
	Projected energy change by RFO approximation:        -0.0043907466

	Back-transformation to cartesian coordinates...
	Could not converge backtransformation.
	Using first guess instead.

	--- Internal Coordinate Step in ANG or DEG, aJ/ANG or AJ/DEG ---
	 ---------------------------------------------------------------------------
	   Coordinate                Previous        Force       Change         New 
	   ----------                --------       ------       ------       ------
	    1 R(1,4)          =      1.069846     0.097374     0.011783     1.081629
	    2 R(2,4)          =      1.071046     0.086834     0.010520     1.081565
	    3 R(3,4)          =      1.069284     0.098954     0.012024     1.081308
	    4 R(4,7)          =      1.540645    -0.007421    -0.000982     1.539663
	    5 R(5,7)          =      1.070326     0.099924     0.012040     1.082366
	    6 R(6,7)          =      1.069761     0.103839     0.012493     1.082254
	    7 R(7,10)         =      1.540128    -0.074088    -0.010469     1.529658
	    8 R(8,10)         =      1.069698     0.105363     0.012669     1.082366
	    9 R(9,10)         =      1.069668     0.109870     0.013210     1.082878
	   10 R(10,14)        =      1.539422    -0.047587    -0.006770     1.532652
	   11 R(11,14)        =      1.069756     0.102220     0.012326     1.082082
	   12 R(12,14)        =      1.069761     0.098585     0.011900     1.081661
	   13 R(13,14)        =      1.070201     0.095821     0.011577     1.081778
	   14 B(1,4,2)        =    109.489611    -0.000337    -0.764838   108.724773
	   15 B(1,4,3)        =    109.525578    -0.000292    -0.635718   108.889859
	   16 B(1,4,7)        =    109.435773     0.000462     1.112727   110.548500
	   17 B(2,4,3)        =    109.440094    -0.000257    -0.677456   108.762638
	   18 B(2,4,7)        =    109.467289     0.000258     0.570657   110.037945
	   19 B(3,4,7)        =    109.468972     0.000166     0.368981   109.837953
	   20 B(4,7,5)        =    109.431343    -0.000112    -0.103493   109.327850
	   21 B(4,7,6)        =    109.528316    -0.000097    -0.048533   109.479784
	   22 B(4,7,10)       =    109.501062     0.000709     1.494095   110.995157
	   23 B(5,7,6)        =    109.469614     0.000004    -0.266748   109.202866
	   24 B(5,7,10)       =    109.437654    -0.000264    -0.557213   108.880441
	   25 B(6,7,10)       =    109.459295    -0.000240    -0.531541   108.927754
	   26 B(7,10,8)       =    109.452301    -0.000240    -0.515392   108.936909
	   27 B(7,10,9)       =    109.482155    -0.000206    -0.415718   109.066438
	   28 B(7,10,14)      =    109.504437     0.000669     1.405397   110.909834
	   29 B(8,10,9)       =    109.458846     0.000018    -0.202128   109.256718
	   30 B(8,10,14)      =    109.478806    -0.000111    -0.118283   109.360524
	   31 B(9,10,14)      =    109.450772    -0.000131    -0.163912   109.286861
	   32 B(10,14,11)     =    109.488965     0.000414     0.986170   110.475134
	   33 B(10,14,12)     =    109.503926     0.000110     0.239805   109.743731
	   34 B(10,14,13)     =    109.524173     0.000128     0.285012   109.809185
	   35 B(11,14,12)     =    109.458432    -0.000242    -0.547131   108.911301
	   36 B(11,14,13)     =    109.438058    -0.000248    -0.556644   108.881414
	   37 B(12,14,13)     =    109.413709    -0.000164    -0.423617   108.990092
	   38 D(1,4,7,5)      =    -90.013457     0.000025     0.414633   -89.598824
	   39 D(1,4,7,6)      =     29.995095    -0.000004    -0.004169    29.990926
	   40 D(1,4,7,10)     =    150.033802     0.000015     0.240967   150.274769
	   41 D(2,4,7,5)      =     29.984958     0.000031     0.524851    30.509809
	   42 D(2,4,7,6)      =    149.993510     0.000003     0.106049   150.099559
	   43 D(2,4,7,10)     =    -89.967782     0.000022     0.351185   -89.616597
	   44 D(3,4,7,5)      =    149.943059     0.000018     0.273010   150.216069
	   45 D(3,4,7,6)      =    -90.048389    -0.000010    -0.145792   -90.194181
	   46 D(3,4,7,10)     =     29.990318     0.000009     0.099344    30.089662
	   47 D(4,7,10,8)     =    -60.009777     0.000024     0.320152   -59.689625
	   48 D(4,7,10,9)     =     59.970178    -0.000034    -0.483815    59.486363
	   49 D(4,7,10,14)    =    179.972182    -0.000005    -0.077659   179.894522
	   50 D(5,7,10,8)     =   -179.958653    -0.000007    -0.123005  -180.081657
	   51 D(5,7,10,9)     =    -59.978698    -0.000065    -0.926972   -60.905670
	   52 D(5,7,10,14)    =     60.023306    -0.000036    -0.520816    59.502489
	   53 D(6,7,10,8)     =     60.071149     0.000062     0.850181    60.921330
	   54 D(6,7,10,9)     =   -179.948896     0.000005     0.046214  -179.902683
	   55 D(6,7,10,14)    =    -59.946893     0.000033     0.452370   -59.494523
	   56 D(7,10,14,11)   =    179.989448    -0.000003    -0.040746   179.948702
	   57 D(7,10,14,12)   =     59.974196    -0.000008    -0.130297    59.843898
	   58 D(7,10,14,13)   =    -60.007849     0.000004     0.066175   -59.941674
	   59 D(8,10,14,11)   =     59.987626    -0.000014    -0.202955    59.784671
	   60 D(8,10,14,12)   =    -60.027626    -0.000020    -0.292506   -60.320133
	   61 D(8,10,14,13)   =    179.990329    -0.000007    -0.096034   179.894295
	   62 D(9,10,14,11)   =    -59.989345     0.000015     0.215245   -59.774100
	   63 D(9,10,14,12)   =    179.995403     0.000009     0.125693   180.121096
	   64 D(9,10,14,13)   =     60.013359     0.000022     0.322165    60.335524
	 ---------------------------------------------------------------------------
	Successfully symmetrized geometry.
	 Forces used to impose fixed constraints are not included.
	  Forces zeroed: 46 

  ==> Convergence Check <==

  Measures of convergence in internal coordinates in au.
  Criteria marked as inactive (o), active & met (*), and active & unmet ( ).
  --------------------------------------------------------------------------------------------- ~
   Step     Total Energy     Delta E     MAX Force     RMS Force      MAX Disp      RMS Disp    ~
  --------------------------------------------------------------------------------------------- ~
    Convergence Criteria    1.00e-06 *    3.00e-04 *             o    1.20e-03 *             o  ~
  --------------------------------------------------------------------------------------------- ~
      1    -158.15457217   -1.58e+02      1.33e-02      5.61e-03 o    2.61e-02      1.25e-02 o  ~
  ---------------------------------------------------------------------------------------------

	Writing optimization data to binary file.
	Structure for next step:
	Cartesian Geometry (in Angstrom)
	    H    -2.3117112739   1.4911756410   0.1540998625
	    H    -1.8831470050   0.8462379406  -1.4242507502
	    H    -2.2278299435  -0.2490731870  -0.0927714019
	    C    -1.7812940812   0.6994676645  -0.3575416915
	    H     0.2548625584   1.3463592511  -0.6417918084
	    H    -0.1874538642   1.0797246462   1.0454038382
	    C    -0.2927497751   0.7041721666   0.0358758406
	    H    -0.2492463321  -1.3482910165   0.6453669030
	    H     0.1941655344  -1.0829598510  -1.0428950505
	    C     0.2968149155  -0.7056188690  -0.0330922110
	    H     2.1886743426  -1.6986089351   0.3060545315
	    H     1.8900370964  -0.3243849348   1.3652558548
	    H     2.3323816954  -0.0591636862  -0.3187114422
	    C     1.7791458410  -0.6982797705   0.3563478164
			--------------------------
			 OPTKING Finished Execution 
			--------------------------

    Structure for next step:
    Molecular point group: c1
    Full point group: C1

    Geometry (in Angstrom), charge = 0, multiplicity = 1:

    H           -2.312120055926     1.491211487200     0.153844957794
    H           -1.883555787080     0.846273786772    -1.424505654886
    H           -2.228238725516    -0.249037340832    -0.093026306559
    C           -1.781702863257     0.699503510656    -0.357796596143
    H            0.254453776321     1.346395097284    -0.642046713047
    H           -0.187862646275     1.079760492391     1.045148933524
    C           -0.293158557133     0.704208012826     0.035620935933
    H           -0.249655114104    -1.348255170342     0.645111998297
    H            0.193756752412    -1.082924004811    -1.043149955215
    C            0.296406133453    -0.705583022832    -0.033347115645
    H            2.188265560600    -1.698573088939     0.305799626854
    H            1.889628314379    -0.324349088639     1.365000950133
    H            2.331972913394    -0.059127839955    -0.318966346894
    C            1.778737059010    -0.698243924343     0.356092911714

gradient() will perform analytic gradient computation.

*** tstart() called on gpu-2-14.local
*** at Wed Jun 14 14:29:46 2017

    SCF Algorithm Type (re)set to DF.

*** tstart() called on gpu-2-14.local
*** at Wed Jun 14 14:29:46 2017

   => Loading Basis Set <=

    Name: AUG-CC-PVTZ
    Role: ORBITAL
    Keyword: BASIS
    atoms 1-3, 5-6, 8-9, 11-13 entry H          line    34 file /cbio/jclab/home/chayas/anaconda/envs/py35/share/psi4/basis/aug-cc-pvtz.gbs 
    atoms 4, 7, 10, 14         entry C          line   221 file /cbio/jclab/home/chayas/anaconda/envs/py35/share/psi4/basis/aug-cc-pvtz.gbs 


         ---------------------------------------------------------
                                   SCF
            by Justin Turney, Rob Parrish, and Andy Simmonett
                              RHF Reference
                        1 Threads,   4768 MiB Core
         ---------------------------------------------------------

  ==> Geometry <==

    Molecular point group: c1
    Full point group: C1

    Geometry (in Angstrom), charge = 0, multiplicity = 1:

       Center              X                  Y                   Z               Mass       
    ------------   -----------------  -----------------  -----------------  -----------------
           H         -2.312120055926     1.491211487200     0.153844957794     1.007825032070
           H         -1.883555787080     0.846273786772    -1.424505654886     1.007825032070
           H         -2.228238725516    -0.249037340832    -0.093026306559     1.007825032070
           C         -1.781702863257     0.699503510656    -0.357796596143    12.000000000000
           H          0.254453776321     1.346395097284    -0.642046713047     1.007825032070
           H         -0.187862646275     1.079760492391     1.045148933524     1.007825032070
           C         -0.293158557133     0.704208012826     0.035620935933    12.000000000000
           H         -0.249655114104    -1.348255170342     0.645111998297     1.007825032070
           H          0.193756752412    -1.082924004811    -1.043149955215     1.007825032070
           C          0.296406133453    -0.705583022832    -0.033347115645    12.000000000000
           H          2.188265560600    -1.698573088939     0.305799626854     1.007825032070
           H          1.889628314379    -0.324349088639     1.365000950133     1.007825032070
           H          2.331972913394    -0.059127839955    -0.318966346894     1.007825032070
           C          1.778737059010    -0.698243924343     0.356092911714    12.000000000000

  Running in c1 symmetry.

  Rotational constants: A =      0.77684  B =      0.12327  C =      0.11551 [cm^-1]
  Rotational constants: A =  23289.10970  B =   3695.47653  C =   3462.98395 [MHz]
  Nuclear repulsion =  131.357617805102024

  Charge       = 0
  Multiplicity = 1
  Electrons    = 34
  Nalpha       = 17
  Nbeta        = 17

  ==> Algorithm <==

  SCF Algorithm Type is DF.
  DIIS enabled.
  MOM disabled.
  Fractional occupation disabled.
  Guess Type is READ.
  Energy threshold   = 1.00e-10
  Density threshold  = 1.00e-10
  Integral threshold = 0.00e+00

  ==> Primary Basis <==

  Basis Set: AUG-CC-PVTZ
    Blend: AUG-CC-PVTZ
    Number of shells: 146
    Number of basis function: 414
    Number of Cartesian functions: 470
    Spherical Harmonics?: true
    Max angular momentum: 3

   => Loading Basis Set <=

    Name: (AUG-CC-PVTZ AUX)
    Role: JKFIT
    Keyword: DF_BASIS_SCF
    atoms 1-3, 5-6, 8-9, 11-13 entry H          line    69 file /cbio/jclab/home/chayas/anaconda/envs/py35/share/psi4/basis/aug-cc-pvtz-jkfit.gbs 
    atoms 4, 7, 10, 14         entry C          line   161 file /cbio/jclab/home/chayas/anaconda/envs/py35/share/psi4/basis/aug-cc-pvtz-jkfit.gbs 

  Reading orbitals from file 180, no projection.

  ==> Pre-Iterations <==

   -------------------------------------------------------
    Irrep   Nso     Nmo     Nalpha   Nbeta   Ndocc  Nsocc
   -------------------------------------------------------
     A        414     414       0       0       0       0
   -------------------------------------------------------
    Total     414     414      17      17      17       0
   -------------------------------------------------------

  ==> Integral Setup <==

  ==> DFJK: Density-Fitted J/K Matrices <==

    J tasked:                  Yes
    K tasked:                  Yes
    wK tasked:                  No
    OpenMP threads:              1
    Integrals threads:           1
    Memory (MB):              3576
    Algorithm:                Core
    Integral Cache:           NONE
    Schwarz Cutoff:          1E-12
    Fitting Condition:       1E-12

   => Auxiliary Basis Set <=

  Basis Set: (AUG-CC-PVTZ AUX)
    Blend: AUG-CC-PVTZ-JKFIT
    Number of shells: 260
    Number of basis function: 876
    Number of Cartesian functions: 1074
    Spherical Harmonics?: true
    Max angular momentum: 4

  Minimum eigenvalue in the overlap matrix is 8.9975459804E-06.
  Using Symmetric Orthogonalization.

  SCF Guess: Orbitals guess was supplied from a previous computation.

  ==> Iterations <==

                           Total Energy        Delta E     RMS |[F,P]|

   @DF-RHF iter   0:  -157.27651316550202   -1.57277e+02   1.21524e-04 
   @DF-RHF iter   1:  -157.35246125685001   -7.59481e-02   5.04171e-05 
   @DF-RHF iter   2:  -157.35272020187867   -2.58945e-04   2.60835e-05 DIIS
   @DF-RHF iter   3:  -157.35277539807831   -5.51962e-05   2.81036e-06 DIIS
   @DF-RHF iter   4:  -157.35277680375293   -1.40567e-06   7.58520e-07 DIIS
   @DF-RHF iter   5:  -157.35277689012821   -8.63753e-08   2.53816e-07 DIIS
   @DF-RHF iter   6:  -157.35277690009548   -9.96727e-09   4.28092e-08 DIIS
   @DF-RHF iter   7:  -157.35277690050532   -4.09841e-10   6.43189e-09 DIIS
   @DF-RHF iter   8:  -157.35277690051683   -1.15108e-11   1.25661e-09 DIIS
   @DF-RHF iter   9:  -157.35277690051555    1.27898e-12   2.97950e-10 DIIS
   @DF-RHF iter  10:  -157.35277690051595   -3.97904e-13   6.06374e-11 DIIS

  ==> Post-Iterations <==

    Orbital Energies (a.u.)
    -----------------------

    Doubly Occupied:                                                      

       1A    -11.210368     2A    -11.209631     3A    -11.203577  
       4A    -11.203289     5A     -1.070664     6A     -0.979245  
       7A     -0.860324     8A     -0.789640     9A     -0.644468  
      10A     -0.584559    11A     -0.572548    12A     -0.572395  
      13A     -0.511738    14A     -0.500595    15A     -0.468834  
      16A     -0.465137    17A     -0.448701  

    Virtual:                                                              

      18A      0.032304    19A      0.037286    20A      0.039490  
      21A      0.040644    22A      0.057597    23A      0.058533  
      24A      0.059953    25A      0.061146    26A      0.080155  
      27A      0.082724    28A      0.100520    29A      0.112513  
      30A      0.122863    31A      0.130720    32A      0.137040  
      33A      0.141736    34A      0.142642    35A      0.145812  
      36A      0.148297    37A      0.160168    38A      0.163593  
      39A      0.166900    40A      0.171547    41A      0.201527  
      42A      0.205638    43A      0.213604    44A      0.228142  
      45A      0.242942    46A      0.248865    47A      0.252031  
      48A      0.267465    49A      0.276366    50A      0.282188  
      51A      0.285771    52A      0.313794    53A      0.318449  
      54A      0.329841    55A      0.336422    56A      0.344782  
      57A      0.353068    58A      0.357074    59A      0.357995  
      60A      0.364089    61A      0.371578    62A      0.372620  
      63A      0.380940    64A      0.386268    65A      0.389983  
      66A      0.390792    67A      0.397321    68A      0.401022  
      69A      0.403925    70A      0.411099    71A      0.418566  
      72A      0.428723    73A      0.440631    74A      0.447620  
      75A      0.450160    76A      0.459485    77A      0.460340  
      78A      0.463231    79A      0.470677    80A      0.483578  
      81A      0.486644    82A      0.496061    83A      0.499986  
      84A      0.504132    85A      0.511457    86A      0.514702  
      87A      0.518643    88A      0.531845    89A      0.537296  
      90A      0.543312    91A      0.547693    92A      0.555258  
      93A      0.568476    94A      0.571664    95A      0.581878  
      96A      0.589666    97A      0.606979    98A      0.609485  
      99A      0.610019   100A      0.632451   101A      0.640197  
     102A      0.658390   103A      0.676258   104A      0.679971  
     105A      0.698763   106A      0.717111   107A      0.760643  
     108A      0.776449   109A      0.798338   110A      0.811068  
     111A      0.820329   112A      0.827763   113A      0.834103  
     114A      0.844442   115A      0.846630   116A      0.858465  
     117A      0.866491   118A      0.874633   119A      0.879802  
     120A      0.888342   121A      0.895145   122A      0.901037  
     123A      0.909034   124A      0.919283   125A      0.924053  
     126A      0.929188   127A      0.931676   128A      0.934884  
     129A      0.944141   130A      0.959689   131A      0.960661  
     132A      0.972925   133A      0.977391   134A      0.986807  
     135A      0.994466   136A      1.016674   137A      1.024461  
     138A      1.032331   139A      1.045933   140A      1.066413  
     141A      1.079890   142A      1.082499   143A      1.088115  
     144A      1.103770   145A      1.108845   146A      1.114719  
     147A      1.124127   148A      1.131082   149A      1.147168  
     150A      1.152738   151A      1.156383   152A      1.168915  
     153A      1.174514   154A      1.187552   155A      1.194343  
     156A      1.215484   157A      1.223891   158A      1.230188  
     159A      1.241272   160A      1.247452   161A      1.259253  
     162A      1.265059   163A      1.272402   164A      1.279532  
     165A      1.293859   166A      1.298401   167A      1.313240  
     168A      1.320161   169A      1.336054   170A      1.355541  
     171A      1.366237   172A      1.383709   173A      1.401503  
     174A      1.412763   175A      1.427475   176A      1.440541  
     177A      1.456714   178A      1.479468   179A      1.499160  
     180A      1.505552   181A      1.517026   182A      1.523202  
     183A      1.537302   184A      1.554250   185A      1.568466  
     186A      1.583819   187A      1.595411   188A      1.609166  
     189A      1.628912   190A      1.639294   191A      1.648050  
     192A      1.657475   193A      1.670387   194A      1.690972  
     195A      1.694900   196A      1.698050   197A      1.709774  
     198A      1.715815   199A      1.728843   200A      1.738395  
     201A      1.745886   202A      1.758817   203A      1.763560  
     204A      1.768115   205A      1.780745   206A      1.783237  
     207A      1.793131   208A      1.806077   209A      1.817532  
     210A      1.854460   211A      1.865998   212A      1.871334  
     213A      1.887216   214A      1.898067   215A      1.912290  
     216A      1.923868   217A      1.954527   218A      1.966803  
     219A      1.985339   220A      1.992862   221A      1.994788  
     222A      2.011892   223A      2.023736   224A      2.034900  
     225A      2.038664   226A      2.058232   227A      2.082727  
     228A      2.088797   229A      2.103348   230A      2.155357  
     231A      2.162559   232A      2.186435   233A      2.194755  
     234A      2.203287   235A      2.229765   236A      2.252432  
     237A      2.261538   238A      2.273974   239A      2.286440  
     240A      2.298614   241A      2.324502   242A      2.331699  
     243A      2.337510   244A      2.344913   245A      2.360987  
     246A      2.374364   247A      2.408765   248A      2.440293  
     249A      2.463714   250A      2.479075   251A      2.500685  
     252A      2.541874   253A      2.602275   254A      2.611543  
     255A      2.630928   256A      2.662360   257A      2.767303  
     258A      2.895999   259A      2.960824   260A      3.030076  
     261A      3.229447   262A      3.242910   263A      3.303009  
     264A      3.364373   265A      3.398099   266A      3.428149  
     267A      3.447194   268A      3.458899   269A      3.464365  
     270A      3.486099   271A      3.522893   272A      3.556741  
     273A      3.565102   274A      3.582671   275A      3.599989  
     276A      3.603256   277A      3.633137   278A      3.661845  
     279A      3.677830   280A      3.688587   281A      3.704509  
     282A      3.710829   283A      3.733879   284A      3.742172  
     285A      3.752728   286A      3.775430   287A      3.778594  
     288A      3.798625   289A      3.815533   290A      3.827877  
     291A      3.847177   292A      3.870098   293A      3.872957  
     294A      3.881651   295A      3.906558   296A      3.914717  
     297A      3.952284   298A      3.968426   299A      3.971705  
     300A      3.980467   301A      3.997775   302A      4.007608  
     303A      4.014976   304A      4.018142   305A      4.047560  
     306A      4.053580   307A      4.065811   308A      4.083361  
     309A      4.132705   310A      4.163914   311A      4.186963  
     312A      4.195467   313A      4.220839   314A      4.229984  
     315A      4.238279   316A      4.261516   317A      4.267912  
     318A      4.281925   319A      4.311728   320A      4.317151  
     321A      4.332715   322A      4.366193   323A      4.375262  
     324A      4.399694   325A      4.427836   326A      4.437489  
     327A      4.507235   328A      4.524752   329A      4.560377  
     330A      4.572581   331A      4.605660   332A      4.647524  
     333A      4.653611   334A      4.673719   335A      4.701490  
     336A      4.716527   337A      4.723363   338A      4.734744  
     339A      4.760938   340A      4.776020   341A      4.791165  
     342A      4.843407   343A      4.853850   344A      4.869238  
     345A      4.875660   346A      4.917275   347A      4.936646  
     348A      4.944192   349A      4.959827   350A      4.997981  
     351A      5.024586   352A      5.045483   353A      5.065063  
     354A      5.085957   355A      5.106007   356A      5.142569  
     357A      5.148639   358A      5.170795   359A      5.206938  
     360A      5.217540   361A      5.231037   362A      5.252428  
     363A      5.262999   364A      5.290144   365A      5.306667  
     366A      5.318942   367A      5.366319   368A      5.369145  
     369A      5.414775   370A      5.434338   371A      5.438160  
     372A      5.450568   373A      5.474856   374A      5.495336  
     375A      5.556794   376A      5.568751   377A      5.584376  
     378A      5.630760   379A      5.642365   380A      5.648931  
     381A      5.686846   382A      5.724357   383A      5.737199  
     384A      5.756714   385A      5.805918   386A      5.814953  
     387A      5.865661   388A      5.889167   389A      5.932368  
     390A      5.994272   391A      6.067398   392A      6.126187  
     393A      6.142510   394A      6.175727   395A      6.188071  
     396A      6.225046   397A      6.231234   398A      6.285746  
     399A      6.292166   400A      6.328593   401A      6.350297  
     402A      6.431358   403A      6.554809   404A      6.580372  
     405A      6.734264   406A      6.779561   407A      6.830088  
     408A      6.851324   409A      6.852102   410A      6.985615  
     411A     18.018237   412A     18.142658   413A     18.814243  
     414A     18.933982  

    Final Occupation by Irrep:
              A 
    DOCC [    17 ]

  Energy converged.

  @DF-RHF Final Energy:  -157.35277690051595

   => Energetics <=

    Nuclear Repulsion Energy =            131.3576178051020236
    One-Electron Energy =                -470.8293638078818049
    Two-Electron Energy =                 182.1189691022638613
    DFT Exchange-Correlation Energy =       0.0000000000000000
    Empirical Dispersion Energy =           0.0000000000000000
    PCM Polarization Energy =               0.0000000000000000
    EFP Energy =                            0.0000000000000000
    Total Energy =                       -157.3527769005159485



Properties will be evaluated at   0.000000,   0.000000,   0.000000 Bohr

Properties computed using the SCF density matrix

  Nuclear Dipole Moment: (a.u.)
     X:    -0.0031      Y:     0.0013      Z:    -0.0064

  Electronic Dipole Moment: (a.u.)
     X:     0.0041      Y:    -0.0017      Z:     0.0049

  Dipole Moment: (a.u.)
     X:     0.0010      Y:    -0.0004      Z:    -0.0015     Total:     0.0018

  Dipole Moment: (Debye)
     X:     0.0025      Y:    -0.0010      Z:    -0.0037     Total:     0.0046


*** tstop() called on gpu-2-14.local at Wed Jun 14 14:31:13 2017
Module time:
	user time   =      75.42 seconds =       1.26 minutes
	system time =       0.63 seconds =       0.01 minutes
	total time  =         87 seconds =       1.45 minutes
Total time:
	user time   =     553.41 seconds =       9.22 minutes
	system time =       5.66 seconds =       0.09 minutes
	total time  =        646 seconds =      10.77 minutes

  //>>>>>>>>>>>>>>>>>>>>>>>>>>>>>>>>>>>//
  //               DFMP2               //
  //<<<<<<<<<<<<<<<<<<<<<<<<<<<<<<<<<<<//

   => Loading Basis Set <=

    Name: (AUG-CC-PVTZ AUX)
    Role: RIFIT
    Keyword: DF_BASIS_MP2
    atoms 1-3, 5-6, 8-9, 11-13 entry H          line    29 file /cbio/jclab/home/chayas/anaconda/envs/py35/share/psi4/basis/aug-cc-pvtz-ri.gbs 
    atoms 4, 7, 10, 14         entry C          line   147 file /cbio/jclab/home/chayas/anaconda/envs/py35/share/psi4/basis/aug-cc-pvtz-ri.gbs 

	 --------------------------------------------------------
	                          DF-MP2                         
	      2nd-Order Density-Fitted Moller-Plesset Theory     
	              RMP2 Wavefunction,   1 Threads             
	                                                         
	        Rob Parrish, Justin Turney, Andy Simmonett,      
	           Ed Hohenstein, and C. David Sherrill          
	 --------------------------------------------------------

   => Auxiliary Basis Set <=

  Basis Set: (AUG-CC-PVTZ AUX)
    Blend: AUG-CC-PVTZ-RI
    Number of shells: 252
    Number of basis function: 884
    Number of Cartesian functions: 1094
    Spherical Harmonics?: true
    Max angular momentum: 4

	 --------------------------------------------------------
	                 NBF =   414, NAUX =   884
	 --------------------------------------------------------
	   CLASS    FOCC     OCC    AOCC    AVIR     VIR    FVIR
	   PAIRS       0      17      17     397     397       0
	 --------------------------------------------------------


         ------------------------------------------------------------
                                     CPHF                           
                                  Rob Parrish                       
         ------------------------------------------------------------

  ==> Geometry <==

    Molecular point group: c1
    Full point group: C1

    Geometry (in Angstrom), charge = 0, multiplicity = 1:

       Center              X                  Y                   Z               Mass       
    ------------   -----------------  -----------------  -----------------  -----------------
           H         -2.312120055926     1.491211487200     0.153844957794     1.007825032070
           H         -1.883555787080     0.846273786772    -1.424505654886     1.007825032070
           H         -2.228238725516    -0.249037340832    -0.093026306559     1.007825032070
           C         -1.781702863257     0.699503510656    -0.357796596143    12.000000000000
           H          0.254453776321     1.346395097284    -0.642046713047     1.007825032070
           H         -0.187862646275     1.079760492391     1.045148933524     1.007825032070
           C         -0.293158557133     0.704208012826     0.035620935933    12.000000000000
           H         -0.249655114104    -1.348255170342     0.645111998297     1.007825032070
           H          0.193756752412    -1.082924004811    -1.043149955215     1.007825032070
           C          0.296406133453    -0.705583022832    -0.033347115645    12.000000000000
           H          2.188265560600    -1.698573088939     0.305799626854     1.007825032070
           H          1.889628314379    -0.324349088639     1.365000950133     1.007825032070
           H          2.331972913394    -0.059127839955    -0.318966346894     1.007825032070
           C          1.778737059010    -0.698243924343     0.356092911714    12.000000000000

  Nuclear repulsion =  131.357617805102024
  Reference energy  = -157.352776900515948

  ==> Basis Set <==

  Basis Set: AUG-CC-PVTZ
    Blend: AUG-CC-PVTZ
    Number of shells: 146
    Number of basis function: 414
    Number of Cartesian functions: 470
    Spherical Harmonics?: true
    Max angular momentum: 3

  ==> CGRSolver (by Rob Parrish) <==

   Number of roots    =         1
   Preconditioning    =    JACOBI
   Convergence cutoff =     1E-06
   Maximum iterations =       100

  ==> CPHFRHamiltonian (by Rob Parrish) <== 

  ==> DFJK: Density-Fitted J/K Matrices <==

    J tasked:                  Yes
    K tasked:                  Yes
    wK tasked:                  No
    OpenMP threads:              1
    Integrals threads:           1
    Memory (MB):              3576
    Algorithm:                Core
    Integral Cache:           NONE
    Schwarz Cutoff:          1E-12
    Fitting Condition:       1E-12

   => Auxiliary Basis Set <=

  Basis Set: (AUG-CC-PVTZ AUX)
    Blend: AUG-CC-PVTZ-JKFIT
    Number of shells: 260
    Number of basis function: 876
    Number of Cartesian functions: 1074
    Spherical Harmonics?: true
    Max angular momentum: 4

  ==> CPHF Iterations <==

  => Iterations <=

             Iter  Converged  Remaining    Residual
  CGR           1          0          1   8.300E-02
  CGR           2          0          1   1.326E-02
  CGR           3          0          1   3.489E-03
  CGR           4          0          1   8.152E-04
  CGR           5          0          1   1.204E-04
  CGR           6          0          1   2.204E-05
  CGR           7          0          1   3.908E-06
  CGR           8          1          0   8.947E-07

    CGRSolver converged.

  ==> DFCorrGrad: Density-Fitted Correlated Gradients <==

    OpenMP threads:              1
    Integrals threads:           1
    Memory (MB):              3576
    Schwarz Cutoff:          0E+00
    Fitting Condition:       1E-12

   => Auxiliary Basis Set <=

  Basis Set: (AUG-CC-PVTZ AUX)
    Blend: AUG-CC-PVTZ-JKFIT
    Number of shells: 260
    Number of basis function: 876
    Number of Cartesian functions: 1074
    Spherical Harmonics?: true
    Max angular momentum: 4

	-----------------------------------------------------------
	 ==================> DF-MP2 Energies <==================== 
	-----------------------------------------------------------
	 Reference Energy          =    -157.3527769005159485 [Eh]
	 Singles Energy            =      -0.0000000000000001 [Eh]
	 Same-Spin Energy          =      -0.1653451371928452 [Eh]
	 Opposite-Spin Energy      =      -0.6394987596734850 [Eh]
	 Correlation Energy        =      -0.8048438968663304 [Eh]
	 Total Energy              =    -158.1576207973822648 [Eh]
	-----------------------------------------------------------
	 ================> DF-SCS-MP2 Energies <================== 
	-----------------------------------------------------------
	 SCS Same-Spin Scale       =       0.3333333333333333 [-]
	 SCS Opposite-Spin Scale   =       1.2000000000000000 [-]
	 SCS Same-Spin Energy      =      -0.0551150457309484 [Eh]
	 SCS Opposite-Spin Energy  =      -0.7673985116081820 [Eh]
	 SCS Correlation Energy    =      -0.8225135573391305 [Eh]
	 SCS Total Energy          =    -158.1752904578550840 [Eh]
	-----------------------------------------------------------


  -Total Gradient:
     Atom            X                  Y                   Z
    ------   -----------------  -----------------  -----------------
       1        0.003698848295    -0.002463806625     0.000381492804
       2        0.002541150049     0.000986286938     0.003346628067
       3        0.003586293689     0.002570449954    -0.001242245984
       4       -0.013308293310    -0.003497124594    -0.003290674251
       5       -0.003603262263    -0.004582964906    -0.000574980364
       6       -0.002716130280    -0.002548955104    -0.003391047230
       7        0.012612062196     0.015968271321     0.005029576928
       8        0.003478277614     0.003815959221    -0.000643301020
       9        0.002709840485     0.003622979678     0.003272466350
      10       -0.013477457205    -0.016195691152    -0.004599449382
      11       -0.003410724734     0.002497960853    -0.000528572756
      12       -0.002147897890    -0.001449076708    -0.003470944904
      13       -0.003423086253    -0.002130867107     0.001340787381
      14        0.013460379609     0.003406578231     0.004370264363


*** tstop() called on gpu-2-14.local at Wed Jun 14 14:38:52 2017
Module time:
	user time   =     465.81 seconds =       7.76 minutes
	system time =       4.94 seconds =       0.08 minutes
	total time  =        546 seconds =       9.10 minutes
Total time:
	user time   =     943.80 seconds =      15.73 minutes
	system time =       9.97 seconds =       0.17 minutes
	total time  =       1105 seconds =      18.42 minutes

			-----------------------------------------
			 OPTKING 2.0: for geometry optimizations 
			  - R.A. King,  Bethel University        
			-----------------------------------------

	Previous internal coordinate definitions found.
	---Fragment 1 Geometry and Gradient---
	 H          -4.3692736921        2.8179813170        0.2907248372
	 H          -3.5594045936        1.5992256904       -2.6919255625
	 H          -4.2107609499       -0.4706123710       -0.1757942426
	 C          -3.3669304617        1.3218700641       -0.6761375780
	 H           0.4808479507        2.5443180005       -1.2132924522
	 H          -0.3550089521        2.0404516197        1.9750452524
	 C          -0.5539893865        1.3307602848        0.0673138135
	 H          -0.4717797933       -2.5478330292        1.2190850018
	 H           0.3661471985       -2.0464297918       -1.9712677309
	 C           0.5601264163       -1.3333586772       -0.0630169159
	 H           4.1352226156       -3.2098379548        0.5778775463
	 H           3.5708800071       -0.6129309490        2.5794779669
	 H           4.4067901556       -0.1117354243       -0.6027590412
	 C           3.3613259039       -1.3194897910        0.6729180810
	             0.0036988483       -0.0024638066        0.0003814928
	             0.0025411500        0.0009862869        0.0033466281
	             0.0035862937        0.0025704500       -0.0012422460
	            -0.0133082933       -0.0034971246       -0.0032906743
	            -0.0036032623       -0.0045829649       -0.0005749804
	            -0.0027161303       -0.0025489551       -0.0033910472
	             0.0126120622        0.0159682713        0.0050295769
	             0.0034782776        0.0038159592       -0.0006433010
	             0.0027098405        0.0036229797        0.0032724663
	            -0.0134774572       -0.0161956912       -0.0045994494
	            -0.0034107247        0.0024979609       -0.0005285728
	            -0.0021478979       -0.0014490767       -0.0034709449
	            -0.0034230863       -0.0021308671        0.0013407874
	             0.0134603796        0.0034065782        0.0043702644

	---Fragment 1 Intrafragment Coordinates---
	 - Coordinate -           - BOHR/RAD -       - ANG/DEG -
	 R(1,4)           =         2.043982	       1.081629
	 R(2,4)           =         2.043862	       1.081565
	 R(3,4)           =         2.043376	       1.081308
	 R(4,7)           =         2.909542	       1.539663
	 R(5,7)           =         2.045376	       1.082366
	 R(6,7)           =         2.045164	       1.082254
	 R(7,10)          =         2.890635	       1.529658
	 R(8,10)          =         2.045376	       1.082366
	 R(9,10)          =         2.046343	       1.082878
	 R(10,14)         =         2.896293	       1.532652
	 R(11,14)         =         2.044839	       1.082082
	 R(12,14)         =         2.044042	       1.081661
	 R(13,14)         =         2.044265	       1.081778
	 B(1,4,2)         =         1.897605	     108.724773
	 B(1,4,3)         =         1.900487	     108.889859
	 B(1,4,7)         =         1.929435	     110.548500
	 B(2,4,3)         =         1.898266	     108.762638
	 B(2,4,7)         =         1.920524	     110.037945
	 B(3,4,7)         =         1.917034	     109.837953
	 B(4,7,5)         =         1.908131	     109.327850
	 B(4,7,6)         =         1.910783	     109.479784
	 B(4,7,10)        =         1.937231	     110.995157
	 B(5,7,6)         =         1.905950	     109.202866
	 B(5,7,10)        =         1.900322	     108.880441
	 B(6,7,10)        =         1.901148	     108.927754
	 B(7,10,8)        =         1.901308	     108.936909
	 B(7,10,9)        =         1.903568	     109.066438
	 B(7,10,14)       =         1.935742	     110.909834
	 B(8,10,9)        =         1.906889	     109.256718
	 B(8,10,14)       =         1.908701	     109.360524
	 B(9,10,14)       =         1.907416	     109.286861
	 B(10,14,11)      =         1.928155	     110.475134
	 B(10,14,12)      =         1.915389	     109.743731
	 B(10,14,13)      =         1.916532	     109.809185
	 B(11,14,12)      =         1.900861	     108.911301
	 B(11,14,13)      =         1.900339	     108.881414
	 B(12,14,13)      =         1.902236	     108.990092
	 D(1,4,7,5)       =        -1.563794	     -89.598824
	 D(1,4,7,6)       =         0.523440	      29.990926
	 D(1,4,7,10)      =         2.622790	     150.274769
	 D(2,4,7,5)       =         0.532497	      30.509809
	 D(2,4,7,6)       =         2.619732	     150.099559
	 D(2,4,7,10)      =        -1.564105	     -89.616597
	 D(3,4,7,5)       =         2.621765	     150.216069
	 D(3,4,7,6)       =        -1.574185	     -90.194181
	 D(3,4,7,10)      =         0.525164	      30.089662
	 D(4,7,10,8)      =        -1.041780	     -59.689625
	 D(4,7,10,9)      =         1.038233	      59.486363
	 D(4,7,10,14)     =         3.139752	     179.894522
	 D(5,7,10,8)      =         3.140167	     179.918343
	 D(5,7,10,9)      =        -1.063004	     -60.905670
	 D(5,7,10,14)     =         1.038514	      59.502489
	 D(6,7,10,8)      =         1.063278	      60.921330
	 D(6,7,10,9)      =        -3.139894	    -179.902683
	 D(6,7,10,14)     =        -1.038375	     -59.494523
	 D(7,10,14,11)    =         3.140697	     179.948702
	 D(7,10,14,12)    =         1.044473	      59.843898
	 D(7,10,14,13)    =        -1.046180	     -59.941674
	 D(8,10,14,11)    =         1.043439	      59.784671
	 D(8,10,14,12)    =        -1.052785	     -60.320133
	 D(8,10,14,13)    =         3.139748	     179.894295
	 D(9,10,14,11)    =        -1.043255	     -59.774100
	 D(9,10,14,12)    =        -3.139479	    -179.878904
	 D(9,10,14,13)    =         1.053054	      60.335524

	Current energy   :      -158.1576207974

	Energy change for the previous step:
		Projected    :        -0.0043907466
		Actual       :        -0.0030486276

	Performing BFGS update.
	Previous computed or guess Hessian on step 1.
	Steps to be used in Hessian update: 1
	Adding user-defined constraint: Fragment 1; Coordinate 46:
		Value =     0.525164; Fixed value    =     0.523600
		Force =    -0.000821; Force constant =     0.525000
	Removing off-diagonal coupling between coordinate 46 and others.
	Taking RFO optimization step.
	Going to follow RFO solution 1.
	Using RFO vector 1.

	Determining step-restricting scale parameter for RS-RFO.
	Maximum step size allowed    0.10000

	 Iter      |step|        alpha        rfo_root  
	------------------------------------------------
	    0     0.19195       1.00000           1
	    1     0.15176       4.71264           1
	    2     0.12101      13.51706           1
	    3     0.10513      22.93526           1
	    4     0.10043      26.89434           1
	    5     0.10000      27.28677           1
	------------------------------------------------
	Norm of target step-size    0.10000
	Projected energy change by RFO approximation:        -0.0022066947

	Back-transformation to cartesian coordinates...
	Successfully converged to displaced geometry.

	--- Internal Coordinate Step in ANG or DEG, aJ/ANG or AJ/DEG ---
	 ---------------------------------------------------------------------------
	   Coordinate                Previous        Force       Change         New 
	   ----------                --------       ------       ------       ------
	    1 R(1,4)          =      1.081629     0.028315     0.004944     1.086573
	    2 R(2,4)          =      1.081565     0.028062     0.005088     1.086653
	    3 R(3,4)          =      1.081308     0.033285     0.006141     1.087449
	    4 R(4,7)          =      1.539663    -0.029489    -0.008729     1.530935
	    5 R(5,7)          =      1.082366     0.034456     0.006345     1.088711
	    6 R(6,7)          =      1.082254     0.035525     0.006517     1.088771
	    7 R(7,10)         =      1.529658    -0.040012    -0.009733     1.519925
	    8 R(8,10)         =      1.082366     0.036447     0.006705     1.089072
	    9 R(9,10)         =      1.082878     0.037659     0.006908     1.089786
	   10 R(10,14)        =      1.532652    -0.039362    -0.010435     1.522217
	   11 R(11,14)        =      1.082082     0.029458     0.005103     1.087185
	   12 R(12,14)        =      1.081661     0.032614     0.005940     1.087601
	   13 R(13,14)        =      1.081778     0.031688     0.005776     1.087554
	   14 B(1,4,2)        =    108.724773    -0.000188    -0.736637   107.988136
	   15 B(1,4,3)        =    108.889859    -0.000158    -0.515110   108.374750
	   16 B(1,4,7)        =    110.548500     0.000232     1.005180   111.553681
	   17 B(2,4,3)        =    108.762638    -0.000185    -1.008983   107.753655
	   18 B(2,4,7)        =    110.037945     0.000165     0.645758   110.683703
	   19 B(3,4,7)        =    109.837953     0.000120     0.523163   110.361116
	   20 B(4,7,5)        =    109.327850    -0.000018     0.200806   109.528656
	   21 B(4,7,6)        =    109.479784    -0.000008     0.185056   109.664840
	   22 B(4,7,10)       =    110.995157     0.000283     1.091890   112.087047
	   23 B(5,7,6)        =    109.202866    -0.000088    -1.146089   108.056776
	   24 B(5,7,10)       =    108.880441    -0.000085    -0.089597   108.790844
	   25 B(6,7,10)       =    108.927754    -0.000090    -0.306836   108.620917
	   26 B(7,10,8)       =    108.936909    -0.000088    -0.224691   108.712218
	   27 B(7,10,9)       =    109.066438    -0.000067    -0.103285   108.963153
	   28 B(7,10,14)      =    110.909834     0.000272     1.056369   111.966203
	   29 B(8,10,9)       =    109.256718    -0.000078    -1.075943   108.180776
	   30 B(8,10,14)      =    109.360524    -0.000017     0.158680   109.519204
	   31 B(9,10,14)      =    109.286861    -0.000027     0.132769   109.419630
	   32 B(10,14,11)     =    110.475134     0.000204     0.824236   111.299370
	   33 B(10,14,12)     =    109.743731     0.000116     0.558755   110.302486
	   34 B(10,14,13)     =    109.809185     0.000124     0.586547   110.395731
	   35 B(11,14,12)     =    108.911301    -0.000152    -0.641757   108.269544
	   36 B(11,14,13)     =    108.881414    -0.000154    -0.639368   108.242046
	   37 B(12,14,13)     =    108.990092    -0.000147    -0.752045   108.238046
	   38 D(1,4,7,5)      =    -89.598824     0.000024     1.197408   -88.401416
	   39 D(1,4,7,6)      =     29.990926    -0.000004     0.031885    30.022811
	   40 D(1,4,7,10)     =    150.274769     0.000010     0.475224   150.749994
	   41 D(2,4,7,5)      =     30.509809     0.000029     1.356521    31.866330
	   42 D(2,4,7,6)      =    150.099559     0.000001     0.190998   150.290557
	   43 D(2,4,7,10)     =    -89.616597     0.000015     0.634337   -88.982260
	   44 D(3,4,7,5)      =    150.216069     0.000018     0.844436   151.060505
	   45 D(3,4,7,6)      =    -90.194181    -0.000010    -0.321087   -90.515268
[...]
  CGR           3          0          1   3.550E-03
  CGR           4          0          1   8.177E-04
  CGR           5          0          1   1.200E-04
  CGR           6          0          1   2.244E-05
  CGR           7          0          1   4.037E-06
  CGR           8          1          0   9.634E-07

    CGRSolver converged.

  ==> DFCorrGrad: Density-Fitted Correlated Gradients <==

    OpenMP threads:              1
    Integrals threads:           1
    Memory (MB):              3576
    Schwarz Cutoff:          0E+00
    Fitting Condition:       1E-12

   => Auxiliary Basis Set <=

  Basis Set: (AUG-CC-PVTZ AUX)
    Blend: AUG-CC-PVTZ-JKFIT
    Number of shells: 260
    Number of basis function: 876
    Number of Cartesian functions: 1074
    Spherical Harmonics?: true
    Max angular momentum: 4

	-----------------------------------------------------------
	 ==================> DF-MP2 Energies <==================== 
	-----------------------------------------------------------
	 Reference Energy          =    -157.3540155698309491 [Eh]
	 Singles Energy            =      -0.0000000000000000 [Eh]
	 Same-Spin Energy          =      -0.1654706186711125 [Eh]
	 Opposite-Spin Energy      =      -0.6395331104091930 [Eh]
	 Correlation Energy        =      -0.8050037290803055 [Eh]
	 Total Energy              =    -158.1590192989112609 [Eh]
	-----------------------------------------------------------
	 ================> DF-SCS-MP2 Energies <================== 
	-----------------------------------------------------------
	 SCS Same-Spin Scale       =       0.3333333333333333 [-]
	 SCS Opposite-Spin Scale   =       1.2000000000000000 [-]
	 SCS Same-Spin Energy      =      -0.0551568728903708 [Eh]
	 SCS Opposite-Spin Energy  =      -0.7674397324910316 [Eh]
	 SCS Correlation Energy    =      -0.8225966053814024 [Eh]
	 SCS Total Energy          =    -158.1766121752123411 [Eh]
	-----------------------------------------------------------


  -Total Gradient:
     Atom            X                  Y                   Z
    ------   -----------------  -----------------  -----------------
       1       -0.000013912889    -0.000012286324     0.000019428913
       2        0.000008789679     0.000007960145     0.000050872784
       3        0.000810260850    -0.001192050215    -0.003019418824
       4       -0.001229737538     0.001349811484     0.004625335958
       5        0.000022505304    -0.000010742472     0.000004957933
       6       -0.000003032173     0.000023659181    -0.000037934556
       7        0.001049800307     0.000218214117    -0.003960506287
       8        0.000015240544    -0.000002159915    -0.000030609274
       9       -0.000022066709    -0.000006119795     0.000015098467
      10       -0.000613143143    -0.000380125043     0.002307678810
      11        0.000003076611     0.000008364084     0.000000738676
      12        0.000015248467    -0.000000689229    -0.000012603680
      13       -0.000004254627    -0.000000462906     0.000001435912
      14       -0.000038774684    -0.000003373110     0.000035525166


*** tstop() called on gpu-2-14.local at Wed Jun 14 15:14:29 2017
Module time:
	user time   =     413.46 seconds =       6.89 minutes
	system time =       5.46 seconds =       0.09 minutes
	total time  =        482 seconds =       8.03 minutes
Total time:
	user time   =    2755.87 seconds =      45.93 minutes
	system time =      31.68 seconds =       0.53 minutes
	total time  =       3242 seconds =      54.03 minutes

			-----------------------------------------
			 OPTKING 2.0: for geometry optimizations 
			  - R.A. King,  Bethel University        
			-----------------------------------------

	Previous internal coordinate definitions found.
	---Fragment 1 Geometry and Gradient---
	 H          -4.3899577398        2.8712686887        0.2166265473
	 H          -3.5410841309        1.5683121634       -2.7154265651
	 H          -4.2564069143       -0.4417887094       -0.2076823379
	 C          -3.3514571634        1.3441784112       -0.6799782959
	 H           0.5084646684        2.5926738811       -1.1066861258
	 H          -0.3760941158        2.0047034349        2.0151266556
	 C          -0.5760414042        1.3086941922        0.0848012164
	 H          -0.4682522933       -2.5494420260        1.2445686145
	 H           0.3066892709       -2.0864181168       -1.9333686534
	 C           0.5711125025       -1.3156424006       -0.0382603670
	 H           4.1406388163       -3.2333031801        0.5710750240
	 H           3.6478438684       -0.5938770397        2.5341838088
	 H           4.4295150475       -0.1590815239       -0.6650125190
	 C           3.3562721408       -1.3349665919        0.6373507934
	            -0.0000139129       -0.0000122863        0.0000194289
	             0.0000087897        0.0000079601        0.0000508728
	             0.0008102608       -0.0011920502       -0.0030194188
	            -0.0012297375        0.0013498115        0.0046253360
	             0.0000225053       -0.0000107425        0.0000049579
	            -0.0000030322        0.0000236592       -0.0000379346
	             0.0010498003        0.0002182141       -0.0039605063
	             0.0000152405       -0.0000021599       -0.0000306093
	            -0.0000220667       -0.0000061198        0.0000150985
	            -0.0006131431       -0.0003801250        0.0023076788
	             0.0000030766        0.0000083641        0.0000007387
	             0.0000152485       -0.0000006892       -0.0000126037
	            -0.0000042546       -0.0000004629        0.0000014359
	            -0.0000387747       -0.0000033731        0.0000355252

	---Fragment 1 Intrafragment Coordinates---
	 - Coordinate -           - BOHR/RAD -       - ANG/DEG -
	 R(1,4)           =         2.052898	       1.086347
	 R(2,4)           =         2.056513	       1.088260
	 R(3,4)           =         2.057104	       1.088572
	 R(4,7)           =         2.879076	       1.523541
	 R(5,7)           =         2.060194	       1.090208
	 R(6,7)           =         2.061690	       1.090999
	 R(7,10)          =         2.866749	       1.517018
	 R(8,10)          =         2.061114	       1.090695
	 R(9,10)          =         2.062874	       1.091626
	 R(10,14)         =         2.865997	       1.516620
	 R(11,14)         =         2.055068	       1.087495
	 R(12,14)         =         2.057232	       1.088640
	 R(13,14)         =         2.056868	       1.088448
	 B(1,4,2)         =         1.880272	     107.731669
	 B(1,4,3)         =         1.899705	     108.845063
	 B(1,4,7)         =         1.961468	     112.383819
	 B(2,4,3)         =         1.855944	     106.337784
	 B(2,4,7)         =         1.931726	     110.679749
	 B(3,4,7)         =         1.930917	     110.633418
	 B(4,7,5)         =         1.924260	     110.251969
	 B(4,7,6)         =         1.915628	     109.757383
	 B(4,7,10)        =         1.966688	     112.682898
	 B(5,7,6)         =         1.854629	     106.262425
	 B(5,7,10)        =         1.912463	     109.576075
	 B(6,7,10)        =         1.886440	     108.085068
	 B(7,10,8)        =         1.895980	     108.631654
	 B(7,10,9)        =         1.907301	     109.280279
	 B(7,10,14)       =         1.965923	     112.639073
	 B(8,10,9)        =         1.858212	     106.467720
	 B(8,10,14)       =         1.916963	     109.833886
	 B(9,10,14)       =         1.916235	     109.792164
	 B(10,14,11)      =         1.949305	     111.686935
	 B(10,14,12)      =         1.931206	     110.649932
	 B(10,14,13)      =         1.932590	     110.729224
	 B(11,14,12)      =         1.884310	     107.963028
	 B(11,14,13)      =         1.884428	     107.969765
	 B(12,14,13)      =         1.879596	     107.692896
	 D(1,4,7,5)       =        -1.482454	     -84.938355
	 D(1,4,7,6)       =         0.554754	      31.785043
	 D(1,4,7,10)      =         2.657971	     152.290496
	 D(2,4,7,5)       =         0.620641	      35.560132
	 D(2,4,7,6)       =         2.657849	     152.283529
	 D(2,4,7,10)      =        -1.522119	     -87.211018
	 D(3,4,7,5)       =         2.673279	     153.167631
	 D(3,4,7,6)       =        -1.572698	     -90.108971
	 D(3,4,7,10)      =         0.530519	      30.396481
	 D(4,7,10,8)      =        -1.047907	     -60.040630
	 D(4,7,10,9)      =         0.972780	      55.736197
	 D(4,7,10,14)     =         3.107573	     178.050836
	 D(5,7,10,8)      =         3.085927	     176.810593
	 D(5,7,10,9)      =        -1.176571	     -67.412580
	 D(5,7,10,14)     =         0.958222	      54.902059
	 D(6,7,10,8)      =         1.071974	      61.419571
	 D(6,7,10,9)      =         3.092661	     177.196398
	 D(6,7,10,14)     =        -1.055732	     -60.488963
	 D(7,10,14,11)    =         3.124577	     179.025053
	 D(7,10,14,12)    =         1.024910	      58.722992
	 D(7,10,14,13)    =        -1.057849	     -60.610286
	 D(8,10,14,11)    =         1.008786	      57.799189
	 D(8,10,14,12)    =        -1.090881	     -62.502872
	 D(8,10,14,13)    =         3.109546	     178.163850
	 D(9,10,14,11)    =        -1.028855	     -58.949069
	 D(9,10,14,12)    =        -3.128522	    -179.251130
	 D(9,10,14,13)    =         1.071904	      61.415592

	Current energy   :      -158.1590192989

	Energy change for the previous step:
		Projected    :         0.0000055050
		Actual       :        -0.0000049067

	Performing BFGS update.
	Previous computed or guess Hessian on step 1.
	Steps to be used in Hessian update: 5 4
	Adding user-defined constraint: Fragment 1; Coordinate 46:
		Value =     0.530519; Fixed value    =     0.523600
		Force =    -0.004324; Force constant =     0.625000
	Removing off-diagonal coupling between coordinate 46 and others.
	Taking RFO optimization step.
	Going to follow RFO solution 1.
	Rejecting RFO root 1 because normalization gives large value.
	Using RFO vector 2.
	Norm of target step-size    0.00280
	Projected energy change by RFO approximation:        -0.0000000134

	Back-transformation to cartesian coordinates...
	Successfully converged to displaced geometry.

	--- Internal Coordinate Step in ANG or DEG, aJ/ANG or AJ/DEG ---
	 ---------------------------------------------------------------------------
	   Coordinate                Previous        Force       Change         New 
	   ----------                --------       ------       ------       ------
	    1 R(1,4)          =      1.086347    -0.000053    -0.000003     1.086344
	    2 R(2,4)          =      1.088260     0.000414     0.000064     1.088324
	    3 R(3,4)          =      1.088572     0.000122     0.000019     1.088592
	    4 R(4,7)          =      1.523541     0.000281     0.000076     1.523618
	    5 R(5,7)          =      1.090208    -0.000019    -0.000004     1.090203
	    6 R(6,7)          =      1.090999     0.000229     0.000029     1.091028
	    7 R(7,10)         =      1.517018     0.000044     0.000016     1.517034
	    8 R(8,10)         =      1.090695     0.000210     0.000034     1.090728
	    9 R(9,10)         =      1.091626     0.000072     0.000006     1.091632
	   10 R(10,14)        =      1.516620     0.000149     0.000034     1.516654
	   11 R(11,14)        =      1.087495     0.000054     0.000008     1.087503
	   12 R(12,14)        =      1.088640     0.000080     0.000012     1.088652
	   13 R(13,14)        =      1.088448     0.000028     0.000006     1.088453
	   14 B(1,4,2)        =    107.731669    -0.000000    -0.002558   107.729112
	   15 B(1,4,3)        =    108.845063     0.000004     0.013292   108.858355
	   16 B(1,4,7)        =    112.383819     0.000001     0.002009   112.385828
	   17 B(2,4,3)        =    106.337784    -0.000003    -0.006287   106.331497
	   18 B(2,4,7)        =    110.679749    -0.000001    -0.002014   110.677735
	   19 B(3,4,7)        =    110.633418    -0.000001    -0.004611   110.628807
	   20 B(4,7,5)        =    110.251969    -0.000001    -0.011826   110.240143
	   21 B(4,7,6)        =    109.757383     0.000001     0.004839   109.762222
	   22 B(4,7,10)       =    112.682898    -0.000001    -0.005551   112.677346
	   23 B(5,7,6)        =    106.262425     0.000001     0.012025   106.274450
	   24 B(5,7,10)       =    109.576075     0.000005     0.007893   109.583967
	   25 B(6,7,10)       =    108.085068    -0.000004    -0.006179   108.078889
	   26 B(7,10,8)       =    108.631654    -0.000001    -0.002768   108.628886
	   27 B(7,10,9)       =    109.280279     0.000000    -0.002262   109.278017
	   28 B(7,10,14)      =    112.639073     0.000002     0.001264   112.640337
	   29 B(8,10,9)       =    106.467720     0.000001     0.013932   106.481651
	   30 B(8,10,14)      =    109.833886     0.000000     0.005099   109.838985
	   31 B(9,10,14)      =    109.792164    -0.000002    -0.014416   109.777749
	   32 B(10,14,11)     =    111.686935    -0.000000    -0.003894   111.683041
	   33 B(10,14,12)     =    110.649932    -0.000002    -0.009848   110.640084
	   34 B(10,14,13)     =    110.729224     0.000001     0.007022   110.736245
	   35 B(11,14,12)     =    107.963028     0.000001     0.001300   107.964327
	   36 B(11,14,13)     =    107.969765     0.000000     0.001600   107.971365
	   37 B(12,14,13)     =    107.692896     0.000001     0.004234   107.697130
	   38 D(1,4,7,5)      =    -84.938355     0.000000     0.011685   -84.926669
	   39 D(1,4,7,6)      =     31.785043     0.000000     0.022244    31.807287
	   40 D(1,4,7,10)     =    152.290496    -0.000001     0.014083   152.304579
	   41 D(2,4,7,5)      =     35.560132     0.000000     0.008374    35.568506
	   42 D(2,4,7,6)      =    152.283529     0.000000     0.018933   152.302462
	   43 D(2,4,7,10)     =    -87.211018    -0.000001     0.010772   -87.200246
	   44 D(3,4,7,5)      =    153.167631    -0.000001    -0.003526   153.164106
	   45 D(3,4,7,6)      =    -90.108971    -0.000001     0.007033   -90.101938
	   46 D(3,4,7,10)     =     30.396481    -0.000002    -0.001128    30.395353
	   47 D(4,7,10,8)     =    -60.040630     0.000000    -0.039678   -60.080308
	   48 D(4,7,10,9)     =     55.736197     0.000000    -0.025846    55.710351
	   49 D(4,7,10,14)    =    178.050836     0.000000    -0.045028   178.005808
	   50 D(5,7,10,8)     =    176.810593    -0.000000    -0.026335   176.784258
	   51 D(5,7,10,9)     =    -67.412580     0.000000    -0.012503   -67.425083
	   52 D(5,7,10,14)    =     54.902059    -0.000000    -0.031685    54.870374
	   53 D(6,7,10,8)     =     61.419571    -0.000000    -0.041397    61.378174
	   54 D(6,7,10,9)     =    177.196398    -0.000000    -0.027565   177.168833
	   55 D(6,7,10,14)    =    -60.488963    -0.000000    -0.046747   -60.535710
	   56 D(7,10,14,11)   =    179.025053    -0.000000     0.036388   179.061441
	   57 D(7,10,14,12)   =     58.722992     0.000000     0.044049    58.767041
	   58 D(7,10,14,13)   =    -60.610286    -0.000000     0.040595   -60.569691
	   59 D(8,10,14,11)   =     57.799189     0.000000     0.035466    57.834656
	   60 D(8,10,14,12)   =    -62.502872     0.000000     0.043127   -62.459745
	   61 D(8,10,14,13)   =    178.163850     0.000000     0.039673   178.203523
	   62 D(9,10,14,11)   =    -58.949069    -0.000000     0.024020   -58.925048
	   63 D(9,10,14,12)   =   -179.251130     0.000000     0.031681  -179.219449
	   64 D(9,10,14,13)   =     61.415592    -0.000000     0.028227    61.443819
	 ---------------------------------------------------------------------------
	Successfully symmetrized geometry.
	 Forces used to impose fixed constraints are not included.
	  Forces zeroed: 46 

  ==> Convergence Check <==

  Measures of convergence in internal coordinates in au.
  Criteria marked as inactive (o), active & met (*), and active & unmet ( ).
  ---------------------------------------------------------------------------------------------
   Step     Total Energy     Delta E     MAX Force     RMS Force      MAX Disp      RMS Disp   
  ---------------------------------------------------------------------------------------------
    Convergence Criteria    1.00e-06 *    3.00e-04 *             o    1.20e-03 *             o
  ---------------------------------------------------------------------------------------------
      6    -158.15901930   -4.91e-06      6.02e-05 *    2.31e-05 o    8.16e-04 *    3.50e-04 o  ~
  ---------------------------------------------------------------------------------------------


  **** Optimization is complete! (in 6 steps) ****

  ==> Optimization Summary <==

  Measures of convergence in internal coordinates in au.
  --------------------------------------------------------------------------------------------------------------- ~
   Step         Total Energy             Delta E       MAX Force       RMS Force        MAX Disp        RMS Disp  ~
  --------------------------------------------------------------------------------------------------------------- ~
      1    -158.154572169785   -158.154572169785      0.01333575      0.00561201      0.02607688      0.01250685  ~
      2    -158.157620797382     -0.003048627597      0.00485653      0.00230862      0.03023878      0.01252197  ~
      3    -158.158679391532     -0.001058594150      0.00177180      0.00068869      0.03947528      0.01251539  ~
      4    -158.158963573902     -0.000284182370      0.00087305      0.00021573      0.03927945      0.01249865  ~
      5    -158.159014392184     -0.000050818282      0.00014326      0.00004855      0.00697823      0.00308878  ~
      6    -158.159019298911     -0.000004906727      0.00011540      0.00002720      0.00081589      0.00034963  ~
  --------------------------------------------------------------------------------------------------------------- ~

	Writing optimization data to binary file.
	Final energy is   -158.1590192989113
	Final (previous) structure:
	Cartesian Geometry (in Angstrom)
	    H    -2.3230655826   1.5194099498   0.1146338316
	    H    -1.8738610158   0.8299150528  -1.4369418499
	    H    -2.2523935296  -0.2337845160  -0.1099007598
	    C    -1.7735147464   0.7113085795  -0.3598290165
	    H     0.2690679139   1.3719839272  -0.5856330748
	    H    -0.1990204344   1.0608433677   1.0663590986
	    C    -0.3048279823   0.6925311395   0.0448748710
	    H    -0.2477884415  -1.3491066148   0.6585973453
	    H     0.1622929723  -1.1040849150  -1.0230946272
	    C     0.3022197198  -0.6962079731  -0.0202465142
	    H     2.1911316906  -1.7109903514   0.3021998871
	    H     1.9303558356  -0.3142661941   1.3410323140
	    H     2.3439984083  -0.0841823167  -0.3519094685
	    C     1.7760627227  -0.7064338946   0.3372715137
	Saving final (previous) structure.
			--------------------------
			 OPTKING Finished Execution 
			--------------------------

    Final optimized geometry and variables:
    Molecular point group: c1
    Full point group: C1

    Geometry (in Angstrom), charge = 0, multiplicity = 1:

    H           -2.323065582593     1.519409949801     0.114633831594
    H           -1.873861015789     0.829915052837    -1.436941849876
    H           -2.252393529552    -0.233784516015    -0.109900759830
    C           -1.773514746411     0.711308579499    -0.359829016526
    H            0.269067913885     1.371983927197    -0.585633074833
    H           -0.199020434368     1.060843367726     1.066359098563
    C           -0.304827982321     0.692531139533     0.044874870971
    H           -0.247788441465    -1.349106614759     0.658597345326
    H            0.162292972287    -1.104084915019    -1.023094627206
    C            0.302219719846    -0.696207973070    -0.020246514199
    H            2.191131690610    -1.710990351350     0.302199887091
    H            1.930355835639    -0.314266194124     1.341032313987
    H            2.343998408255    -0.084182316740    -0.351909468494
    C            1.776062722732    -0.706433894642     0.337271513743

	Cleaning optimization helper files.

*** Psi4 exiting successfully. Buy a developer a beer!
