
    -----------------------------------------------------------------------
          Psi4: An Open-Source Ab Initio Electronic Structure Package
                               Psi4 1.1 release

                         Git: Rev {HEAD} add49b9 


    R. M. Parrish, L. A. Burns, D. G. A. Smith, A. C. Simmonett,
    A. E. DePrince III, E. G. Hohenstein, U. Bozkaya, A. Yu. Sokolov,
    R. Di Remigio, R. M. Richard, J. F. Gonthier, A. M. James,
    H. R. McAlexander, A. Kumar, M. Saitow, X. Wang, B. P. Pritchard,
    P. Verma, H. F. Schaefer III, K. Patkowski, R. A. King, E. F. Valeev,
    F. A. Evangelista, J. M. Turney, T. D. Crawford, and C. D. Sherrill,
    J. Chem. Theory Comput. in press (2017).
    (doi: 10.1021/acs.jctc.7b00174)

    -----------------------------------------------------------------------


    Psi4 started on: Wednesday, 14 June 2017 02:27PM

    Process ID:  11984
    PSIDATADIR: /cbio/jclab/home/chayas/anaconda/envs/py35/share/psi4
    Memory:     500.0 MiB
    Threads:    1
    
  ==> Input File <==

--------------------------------------------------------------------------

memory 1000 mb

molecule butane {
  symmetry C1
  0 1 
  H      3.283   1.558   -10.652
  H      3.407   3.105   -9.848
  H      4.844   2.157   -10.148
  C      3.805   2.112   -9.901
  H      4.154   1.970   -7.785
  H      2.592   1.371   -8.288
  C      3.631   1.416   -8.537
  H      3.665   -0.647   -7.940
  H      4.104   -0.384   -9.610
  C      4.203   -0.012   -8.612
  H      6.088   -0.983   -8.270
  H      5.791   0.381   -7.220
  H      6.230   0.644   -8.890
  C      5.691   0.009   -8.218
  units Angstrom
}

dih_string = "14 10 7 4 90"
set optking fixed_dihedral = $dih_string

optimize('MP2/aug-cc-pvtz')
--------------------------------------------------------------------------

  Memory set to 953.674 MiB by Python driver.
gradient() will perform analytic gradient computation.

*** tstart() called on cpu-6-1.local
*** at Wed Jun 14 14:27:56 2017

    SCF Algorithm Type (re)set to DF.

*** tstart() called on cpu-6-1.local
*** at Wed Jun 14 14:27:56 2017

   => Loading Basis Set <=

    Name: AUG-CC-PVTZ
    Role: ORBITAL
    Keyword: BASIS
    atoms 1-3, 5-6, 8-9, 11-13 entry H          line    34 file /cbio/jclab/home/chayas/anaconda/envs/py35/share/psi4/basis/aug-cc-pvtz.gbs 
    atoms 4, 7, 10, 14         entry C          line   221 file /cbio/jclab/home/chayas/anaconda/envs/py35/share/psi4/basis/aug-cc-pvtz.gbs 


         ---------------------------------------------------------
                                   SCF
            by Justin Turney, Rob Parrish, and Andy Simmonett
                              RHF Reference
                        1 Threads,    953 MiB Core
         ---------------------------------------------------------

  ==> Geometry <==

    Molecular point group: c1
    Full point group: C1

    Geometry (in Angstrom), charge = 0, multiplicity = 1:

       Center              X                  Y                   Z               Mass       
    ------------   -----------------  -----------------  -----------------  -----------------
           H         -1.063954950813     0.670511638875    -1.826653263696     1.007825032070
           H         -0.939954950813     2.217511638875    -1.022653263696     1.007825032070
           H          0.497045049187     1.269511638875    -1.322653263696     1.007825032070
           C         -0.541954950813     1.224511638875    -1.075653263696    12.000000000000
           H         -0.192954950813     1.082511638875     1.040346736304     1.007825032070
           H         -1.754954950813     0.483511638875     0.537346736304     1.007825032070
           C         -0.715954950813     0.528511638875     0.288346736304    12.000000000000
           H         -0.681954950813    -1.534488361125     0.885346736304     1.007825032070
           H         -0.242954950813    -1.271488361125    -0.784653263696     1.007825032070
           C         -0.143954950813    -0.899488361125     0.213346736304    12.000000000000
           H          1.741045049187    -1.870488361125     0.555346736304     1.007825032070
           H          1.444045049187    -0.506488361125     1.605346736304     1.007825032070
           H          1.883045049187    -0.243488361125    -0.064653263696     1.007825032070
           C          1.344045049187    -0.878488361125     0.607346736304    12.000000000000

  Running in c1 symmetry.

  Rotational constants: A =      0.48444  B =      0.15013  C =      0.13798 [cm^-1]
  Rotational constants: A =  14523.07724  B =   4500.66074  C =   4136.44809 [MHz]
  Nuclear repulsion =  133.472331465651877

  Charge       = 0
  Multiplicity = 1
  Electrons    = 34
  Nalpha       = 17
  Nbeta        = 17

  ==> Algorithm <==

  SCF Algorithm Type is DF.
  DIIS enabled.
  MOM disabled.
  Fractional occupation disabled.
  Guess Type is SAD.
  Energy threshold   = 1.00e-10
  Density threshold  = 1.00e-10
  Integral threshold = 0.00e+00

  ==> Primary Basis <==

  Basis Set: AUG-CC-PVTZ
    Blend: AUG-CC-PVTZ
    Number of shells: 146
    Number of basis function: 414
    Number of Cartesian functions: 470
    Spherical Harmonics?: true
    Max angular momentum: 3

   => Loading Basis Set <=

    Name: (AUG-CC-PVTZ AUX)
    Role: JKFIT
    Keyword: DF_BASIS_SCF
    atoms 1-3, 5-6, 8-9, 11-13 entry H          line    69 file /cbio/jclab/home/chayas/anaconda/envs/py35/share/psi4/basis/aug-cc-pvtz-jkfit.gbs 
    atoms 4, 7, 10, 14         entry C          line   161 file /cbio/jclab/home/chayas/anaconda/envs/py35/share/psi4/basis/aug-cc-pvtz-jkfit.gbs 

  ==> Pre-Iterations <==

   -------------------------------------------------------
    Irrep   Nso     Nmo     Nalpha   Nbeta   Ndocc  Nsocc
   -------------------------------------------------------
     A        414     414       0       0       0       0
   -------------------------------------------------------
    Total     414     414      17      17      17       0
   -------------------------------------------------------

  ==> Integral Setup <==

  ==> DFJK: Density-Fitted J/K Matrices <==

    J tasked:                  Yes
    K tasked:                  Yes
    wK tasked:                  No
    OpenMP threads:              1
    Integrals threads:           1
    Memory (MB):               715
    Algorithm:                Core
    Integral Cache:           NONE
    Schwarz Cutoff:          1E-12
    Fitting Condition:       1E-12

   => Auxiliary Basis Set <=

  Basis Set: (AUG-CC-PVTZ AUX)
    Blend: AUG-CC-PVTZ-JKFIT
    Number of shells: 260
    Number of basis function: 876
    Number of Cartesian functions: 1074
    Spherical Harmonics?: true
    Max angular momentum: 4

  Minimum eigenvalue in the overlap matrix is 6.8140511557E-06.
  Using Symmetric Orthogonalization.

  SCF Guess: Superposition of Atomic Densities via on-the-fly atomic UHF.

  ==> Iterations <==

                           Total Energy        Delta E     RMS |[F,P]|

   @DF-RHF iter   0:  -159.05445543984794   -1.59054e+02   9.60019e-03 
   @DF-RHF iter   1:  -157.23772876133148    1.81673e+00   8.97622e-04 
   @DF-RHF iter   2:  -157.33726385963982   -9.95351e-02   2.80613e-04 DIIS
   @DF-RHF iter   3:  -157.34741222607437   -1.01484e-02   1.10485e-04 DIIS
   @DF-RHF iter   4:  -157.34906517885369   -1.65295e-03   1.98294e-05 DIIS
   @DF-RHF iter   5:  -157.34914148522259   -7.63064e-05   4.27003e-06 DIIS
   @DF-RHF iter   6:  -157.34914551442427   -4.02920e-06   1.19363e-06 DIIS
   @DF-RHF iter   7:  -157.34914570136610   -1.86942e-07   2.76688e-07 DIIS
   @DF-RHF iter   8:  -157.34914571533983   -1.39737e-08   4.72405e-08 DIIS
   @DF-RHF iter   9:  -157.34914571578867   -4.48836e-10   1.20877e-08 DIIS
   @DF-RHF iter  10:  -157.34914571581410   -2.54374e-11   4.00101e-09 DIIS
   @DF-RHF iter  11:  -157.34914571581768   -3.58114e-12   1.06067e-09 DIIS
   @DF-RHF iter  12:  -157.34914571581737    3.12639e-13   2.33792e-10 DIIS
   @DF-RHF iter  13:  -157.34914571581692    4.54747e-13   5.13026e-11 DIIS

  ==> Post-Iterations <==

    Orbital Energies (a.u.)
    -----------------------

    Doubly Occupied:                                                      

       1A    -11.206046     2A    -11.205442     3A    -11.199782  
       4A    -11.199673     5A     -1.072199     6A     -0.977754  
       7A     -0.869950     8A     -0.789072     9A     -0.631428  
      10A     -0.620135    11A     -0.581231    12A     -0.543329  
      13A     -0.525030    14A     -0.507318    15A     -0.473459  
      16A     -0.458612    17A     -0.446808  

    Virtual:                                                              

      18A      0.032090    19A      0.037757    20A      0.039766  
      21A      0.041169    22A      0.057277    23A      0.058723  
      24A      0.059164    25A      0.061374    26A      0.081251  
      27A      0.082967    28A      0.100664    29A      0.120954  
      30A      0.122294    31A      0.126819    32A      0.129188  
      33A      0.132903    34A      0.139528    35A      0.144612  
      36A      0.156158    37A      0.156264    38A      0.161349  
      39A      0.165414    40A      0.176315    41A      0.191926  
      42A      0.209185    43A      0.214612    44A      0.242723  
      45A      0.247044    46A      0.250189    47A      0.254019  
      48A      0.274649    49A      0.274834    50A      0.298927  
      51A      0.302081    52A      0.308189    53A      0.312023  
      54A      0.323338    55A      0.330852    56A      0.334740  
      57A      0.347387    58A      0.359723    59A      0.360524  
      60A      0.364011    61A      0.364869    62A      0.372132  
      63A      0.385163    64A      0.387233    65A      0.390153  
      66A      0.397123    67A      0.404566    68A      0.407073  
      69A      0.419932    70A      0.425466    71A      0.427696  
      72A      0.437046    73A      0.441807    74A      0.447096  
      75A      0.451715    76A      0.455655    77A      0.469270  
      78A      0.475983    79A      0.479937    80A      0.486388  
      81A      0.487508    82A      0.489433    83A      0.500306  
      84A      0.505568    85A      0.520180    86A      0.525478  
      87A      0.526065    88A      0.537369    89A      0.538000  
      90A      0.544470    91A      0.565289    92A      0.572735  
      93A      0.580436    94A      0.590946    95A      0.595877  
      96A      0.597455    97A      0.606563    98A      0.611528  
      99A      0.622833   100A      0.631559   101A      0.635874  
     102A      0.647828   103A      0.660713   104A      0.671935  
     105A      0.682138   106A      0.731636   107A      0.747223  
     108A      0.783861   109A      0.799106   110A      0.815352  
     111A      0.827311   112A      0.829707   113A      0.833240  
     114A      0.848470   115A      0.849418   116A      0.854773  
     117A      0.856233   118A      0.867412   119A      0.879367  
     120A      0.884898   121A      0.891813   122A      0.901023  
     123A      0.911544   124A      0.918513   125A      0.920309  
     126A      0.925903   127A      0.934523   128A      0.944930  
     129A      0.946927   130A      0.970333   131A      0.973770  
     132A      0.982196   133A      0.988442   134A      0.998040  
     135A      1.009154   136A      1.020819   137A      1.032782  
     138A      1.045753   139A      1.053016   140A      1.060403  
     141A      1.081227   142A      1.092991   143A      1.105514  
     144A      1.109563   145A      1.127614   146A      1.133915  
     147A      1.135245   148A      1.143992   149A      1.149652  
     150A      1.162589   151A      1.172871   152A      1.179812  
     153A      1.188691   154A      1.195073   155A      1.201177  
     156A      1.221339   157A      1.230496   158A      1.242776  
     159A      1.250636   160A      1.252162   161A      1.271376  
     162A      1.281879   163A      1.290974   164A      1.303046  
     165A      1.310965   166A      1.318569   167A      1.340706  
     168A      1.352130   169A      1.367165   170A      1.380346  
     171A      1.381908   172A      1.395669   173A      1.420166  
     174A      1.426710   175A      1.429122   176A      1.442520  
     177A      1.474436   178A      1.475877   179A      1.479729  
     180A      1.518083   181A      1.521671   182A      1.533768  
     183A      1.543987   184A      1.576536   185A      1.580878  
     186A      1.587970   187A      1.602941   188A      1.604799  
     189A      1.629322   190A      1.632415   191A      1.668477  
     192A      1.678352   193A      1.685278   194A      1.687223  
     195A      1.695760   196A      1.710960   197A      1.715595  
     198A      1.726673   199A      1.744261   200A      1.754343  
     201A      1.759853   202A      1.762850   203A      1.770931  
     204A      1.789408   205A      1.798828   206A      1.809979  
     207A      1.816550   208A      1.828793   209A      1.838306  
     210A      1.851824   211A      1.861893   212A      1.876848  
     213A      1.878789   214A      1.904042   215A      1.930298  
     216A      1.960825   217A      1.962119   218A      1.975707  
     219A      1.987181   220A      2.012297   221A      2.028102  
     222A      2.030335   223A      2.056574   224A      2.062540  
     225A      2.076933   226A      2.079409   227A      2.093402  
     228A      2.112799   229A      2.116107   230A      2.129327  
     231A      2.195953   232A      2.202441   233A      2.216341  
     234A      2.217266   235A      2.232006   236A      2.252450  
     237A      2.275169   238A      2.277111   239A      2.295650  
     240A      2.301726   241A      2.329353   242A      2.335736  
     243A      2.362186   244A      2.366682   245A      2.379820  
     246A      2.427417   247A      2.434809   248A      2.449022  
     249A      2.459484   250A      2.491566   251A      2.496634  
     252A      2.544870   253A      2.556884   254A      2.578108  
     255A      2.588685   256A      2.639155   257A      2.785860  
     258A      2.834733   259A      2.996128   260A      3.041135  
     261A      3.222406   262A      3.260917   263A      3.294386  
     264A      3.366173   265A      3.385321   266A      3.419071  
     267A      3.456522   268A      3.502403   269A      3.510345  
     270A      3.520653   271A      3.522899   272A      3.538176  
     273A      3.561712   274A      3.581454   275A      3.600800  
     276A      3.618000   277A      3.628852   278A      3.684787  
     279A      3.693597   280A      3.701580   281A      3.705099  
     282A      3.711343   283A      3.715843   284A      3.755034  
     285A      3.763622   286A      3.799389   287A      3.805293  
     288A      3.808882   289A      3.816442   290A      3.832581  
     291A      3.838141   292A      3.844718   293A      3.858615  
     294A      3.884027   295A      3.941795   296A      3.964597  
     297A      3.974272   298A      3.975409   299A      3.993531  
     300A      3.999955   301A      4.005309   302A      4.025792  
     303A      4.032629   304A      4.036428   305A      4.064446  
     306A      4.084598   307A      4.091776   308A      4.097130  
     309A      4.119476   310A      4.172096   311A      4.191550  
     312A      4.200586   313A      4.219104   314A      4.236962  
     315A      4.246131   316A      4.269400   317A      4.277643  
     318A      4.288862   319A      4.326493   320A      4.330554  
     321A      4.354399   322A      4.359662   323A      4.389000  
     324A      4.425223   325A      4.434883   326A      4.447954  
     327A      4.493482   328A      4.535074   329A      4.596504  
     330A      4.598929   331A      4.635997   332A      4.640637  
     333A      4.685935   334A      4.697280   335A      4.722163  
     336A      4.744866   337A      4.751263   338A      4.800783  
     339A      4.817188   340A      4.825373   341A      4.833099  
     342A      4.869793   343A      4.886275   344A      4.894288  
     345A      4.901988   346A      4.936038   347A      4.945005  
     348A      4.968812   349A      4.969570   350A      5.015010  
     351A      5.022107   352A      5.030235   353A      5.049860  
     354A      5.101982   355A      5.132276   356A      5.160633  
     357A      5.174610   358A      5.210199   359A      5.212570  
     360A      5.244522   361A      5.258149   362A      5.283253  
     363A      5.288128   364A      5.307967   365A      5.309241  
     366A      5.340562   367A      5.380024   368A      5.408458  
     369A      5.428129   370A      5.459885   371A      5.467868  
     372A      5.494589   373A      5.497242   374A      5.534201  
     375A      5.570667   376A      5.611105   377A      5.625637  
     378A      5.639067   379A      5.682785   380A      5.692851  
     381A      5.720538   382A      5.756985   383A      5.786760  
     384A      5.813000   385A      5.852411   386A      5.859682  
     387A      5.882065   388A      5.937302   389A      5.944610  
     390A      6.076163   391A      6.109591   392A      6.142681  
     393A      6.180932   394A      6.184340   395A      6.249094  
     396A      6.288941   397A      6.306451   398A      6.328676  
     399A      6.333274   400A      6.378658   401A      6.409364  
     402A      6.472858   403A      6.591327   404A      6.603268  
     405A      6.780271   406A      6.788491   407A      6.818736  
     408A      6.870586   409A      6.938208   410A      6.975161  
     411A     18.117617   412A     18.381363   413A     18.755845  
     414A     19.263582  

    Final Occupation by Irrep:
              A 
    DOCC [    17 ]

  Energy converged.

  @DF-RHF Final Energy:  -157.34914571581692

   => Energetics <=

    Nuclear Repulsion Energy =            133.4723314656518767
    One-Electron Energy =                -475.0284202551386556
    Two-Electron Energy =                 184.2069430736698905
    DFT Exchange-Correlation Energy =       0.0000000000000000
    Empirical Dispersion Energy =           0.0000000000000000
    PCM Polarization Energy =               0.0000000000000000
    EFP Energy =                            0.0000000000000000
    Total Energy =                       -157.3491457158169169



Properties will be evaluated at   0.000000,   0.000000,   0.000000 Bohr

Properties computed using the SCF density matrix

  Nuclear Dipole Moment: (a.u.)
     X:     0.6454      Y:     0.2785      Z:    -0.3727

  Electronic Dipole Moment: (a.u.)
     X:    -0.6804      Y:    -0.2945      Z:     0.3931

  Dipole Moment: (a.u.)
     X:    -0.0350      Y:    -0.0160      Z:     0.0204     Total:     0.0435

  Dipole Moment: (Debye)
     X:    -0.0889      Y:    -0.0406      Z:     0.0519     Total:     0.1107


*** tstop() called on cpu-6-1.local at Wed Jun 14 14:29:29 2017
Module time:
	user time   =      91.42 seconds =       1.52 minutes
	system time =       0.87 seconds =       0.01 minutes
	total time  =         93 seconds =       1.55 minutes
Total time:
	user time   =      91.42 seconds =       1.52 minutes
	system time =       0.87 seconds =       0.01 minutes
	total time  =         93 seconds =       1.55 minutes

  //>>>>>>>>>>>>>>>>>>>>>>>>>>>>>>>>>>>//
  //               DFMP2               //
  //<<<<<<<<<<<<<<<<<<<<<<<<<<<<<<<<<<<//

   => Loading Basis Set <=

    Name: (AUG-CC-PVTZ AUX)
    Role: RIFIT
    Keyword: DF_BASIS_MP2
    atoms 1-3, 5-6, 8-9, 11-13 entry H          line    29 file /cbio/jclab/home/chayas/anaconda/envs/py35/share/psi4/basis/aug-cc-pvtz-ri.gbs 
    atoms 4, 7, 10, 14         entry C          line   147 file /cbio/jclab/home/chayas/anaconda/envs/py35/share/psi4/basis/aug-cc-pvtz-ri.gbs 

	 --------------------------------------------------------
	                          DF-MP2                         
	      2nd-Order Density-Fitted Moller-Plesset Theory     
	              RMP2 Wavefunction,   1 Threads             
	                                                         
	        Rob Parrish, Justin Turney, Andy Simmonett,      
	           Ed Hohenstein, and C. David Sherrill          
	 --------------------------------------------------------

   => Auxiliary Basis Set <=

  Basis Set: (AUG-CC-PVTZ AUX)
    Blend: AUG-CC-PVTZ-RI
    Number of shells: 252
    Number of basis function: 884
    Number of Cartesian functions: 1094
    Spherical Harmonics?: true
    Max angular momentum: 4

	 --------------------------------------------------------
	                 NBF =   414, NAUX =   884
	 --------------------------------------------------------
	   CLASS    FOCC     OCC    AOCC    AVIR     VIR    FVIR
	   PAIRS       0      17      17     397     397       0
	 --------------------------------------------------------


         ------------------------------------------------------------
                                     CPHF                           
                                  Rob Parrish                       
         ------------------------------------------------------------

  ==> Geometry <==

    Molecular point group: c1
    Full point group: C1

    Geometry (in Angstrom), charge = 0, multiplicity = 1:

       Center              X                  Y                   Z               Mass       
    ------------   -----------------  -----------------  -----------------  -----------------
           H         -1.063954950813     0.670511638875    -1.826653263696     1.007825032070
           H         -0.939954950813     2.217511638875    -1.022653263696     1.007825032070
           H          0.497045049187     1.269511638875    -1.322653263696     1.007825032070
           C         -0.541954950813     1.224511638875    -1.075653263696    12.000000000000
           H         -0.192954950813     1.082511638875     1.040346736304     1.007825032070
           H         -1.754954950813     0.483511638875     0.537346736304     1.007825032070
           C         -0.715954950813     0.528511638875     0.288346736304    12.000000000000
           H         -0.681954950813    -1.534488361125     0.885346736304     1.007825032070
           H         -0.242954950813    -1.271488361125    -0.784653263696     1.007825032070
           C         -0.143954950813    -0.899488361125     0.213346736304    12.000000000000
           H          1.741045049187    -1.870488361125     0.555346736304     1.007825032070
           H          1.444045049187    -0.506488361125     1.605346736304     1.007825032070
           H          1.883045049187    -0.243488361125    -0.064653263696     1.007825032070
           C          1.344045049187    -0.878488361125     0.607346736304    12.000000000000

  Nuclear repulsion =  133.472331465651877
  Reference energy  = -157.349145715816917

  ==> Basis Set <==

  Basis Set: AUG-CC-PVTZ
    Blend: AUG-CC-PVTZ
    Number of shells: 146
    Number of basis function: 414
    Number of Cartesian functions: 470
    Spherical Harmonics?: true
    Max angular momentum: 3

  ==> CGRSolver (by Rob Parrish) <==

   Number of roots    =         1
   Preconditioning    =    JACOBI
   Convergence cutoff =     1E-06
   Maximum iterations =       100

  ==> CPHFRHamiltonian (by Rob Parrish) <== 

  ==> DFJK: Density-Fitted J/K Matrices <==

    J tasked:                  Yes
    K tasked:                  Yes
    wK tasked:                  No
    OpenMP threads:              1
    Integrals threads:           1
    Memory (MB):               715
    Algorithm:                Core
    Integral Cache:           NONE
    Schwarz Cutoff:          1E-12
    Fitting Condition:       1E-12

   => Auxiliary Basis Set <=

  Basis Set: (AUG-CC-PVTZ AUX)
    Blend: AUG-CC-PVTZ-JKFIT
    Number of shells: 260
    Number of basis function: 876
    Number of Cartesian functions: 1074
    Spherical Harmonics?: true
    Max angular momentum: 4

  ==> CPHF Iterations <==

  => Iterations <=

             Iter  Converged  Remaining    Residual
  CGR           1          0          1   8.408E-02
  CGR           2          0          1   1.345E-02
  CGR           3          0          1   3.269E-03
  CGR           4          0          1   8.194E-04
  CGR           5          0          1   1.708E-04
  CGR           6          0          1   3.212E-05
  CGR           7          0          1   5.854E-06
  CGR           8          0          1   1.178E-06
  CGR           9          1          0   1.653E-07

    CGRSolver converged.

  ==> DFCorrGrad: Density-Fitted Correlated Gradients <==

    OpenMP threads:              1
    Integrals threads:           1
    Memory (MB):               715
    Schwarz Cutoff:          0E+00
    Fitting Condition:       1E-12

   => Auxiliary Basis Set <=

  Basis Set: (AUG-CC-PVTZ AUX)
    Blend: AUG-CC-PVTZ-JKFIT
    Number of shells: 260
    Number of basis function: 876
    Number of Cartesian functions: 1074
    Spherical Harmonics?: true
    Max angular momentum: 4

	-----------------------------------------------------------
	 ==================> DF-MP2 Energies <==================== 
	-----------------------------------------------------------
	 Reference Energy          =    -157.3491457158169169 [Eh]
	 Singles Energy            =      -0.0000000000000001 [Eh]
	 Same-Spin Energy          =      -0.1657877338555048 [Eh]
	 Opposite-Spin Energy      =      -0.6395435272143383 [Eh]
	 Correlation Energy        =      -0.8053312610698432 [Eh]
	 Total Energy              =    -158.1544769768867695 [Eh]
	-----------------------------------------------------------
	 ================> DF-SCS-MP2 Energies <================== 
	-----------------------------------------------------------
	 SCS Same-Spin Scale       =       0.3333333333333333 [-]
	 SCS Opposite-Spin Scale   =       1.2000000000000000 [-]
	 SCS Same-Spin Energy      =      -0.0552625779518349 [Eh]
	 SCS Opposite-Spin Energy  =      -0.7674522326572059 [Eh]
	 SCS Correlation Energy    =      -0.8227148106090409 [Eh]
	 SCS Total Energy          =    -158.1718605264259452 [Eh]
	-----------------------------------------------------------


  -Total Gradient:
     Atom            X                  Y                   Z
    ------   -----------------  -----------------  -----------------
       1        0.005542221436     0.004903211606     0.009577841561
       2        0.002584291570    -0.011307405764     0.003373595876
       3       -0.011751850996    -0.001691143213     0.005266212389
       4        0.005344334159     0.005993617637    -0.026684211592
       5       -0.003399507173    -0.006363942132    -0.010372109399
       6        0.012464978393    -0.002227305626    -0.003925933413
       7       -0.008173839637     0.013875690293     0.029550904447
       8        0.005636936056     0.009880266387    -0.006415649194
       9        0.003391947754     0.006482183060     0.010999184386
      10       -0.016632276190    -0.024894797640    -0.015338391355
      11       -0.008511410007     0.009835545268    -0.000065502071
      12       -0.002686376397    -0.003621120987    -0.010892246386
      13       -0.008137815729    -0.006570859264     0.006112596227
      14        0.024328366759     0.005706060374     0.008813708522


*** tstop() called on cpu-6-1.local at Wed Jun 14 14:34:19 2017
Module time:
	user time   =     378.88 seconds =       6.31 minutes
	system time =       3.44 seconds =       0.06 minutes
	total time  =        383 seconds =       6.38 minutes
Total time:
	user time   =     378.88 seconds =       6.31 minutes
	system time =       3.44 seconds =       0.06 minutes
	total time  =        383 seconds =       6.38 minutes

			-----------------------------------------
			 OPTKING 2.0: for geometry optimizations 
			  - R.A. King,  Bethel University        
			-----------------------------------------

	Internal coordinates to be generated automatically.
	Detected frag 1 with atoms:  1 2 3 4 5 6 7 8 9 10 11 12 13 14
	---Fragment 1 Bond Connectivity---
	 1 : 4
	 2 : 4
	 3 : 4
	 4 : 1 2 3 7
	 5 : 7
	 6 : 7
	 7 : 4 5 6 10
	 8 : 10
	 9 : 10
	 10 : 7 8 9 14
	 11 : 14
	 12 : 14
	 13 : 14
	 14 : 10 11 12 13

	Assuming in current code that numbering for constraints corresponds to unified fragment.
	Fixed dihedral atom list: 
	    14    10     7     4
	---Fragment 1 Geometry and Gradient---
	 H          -2.0105834748        1.2670833664       -3.4518744081
	 H          -1.7762574343        4.1904896940       -1.9325345973
	 H           0.9392790187        2.3990293200       -2.4994524372
	 C          -1.0241464334        2.3139916440       -2.0326900823
	 H          -0.3646320130        2.0456505331        1.9659704149
	 H          -3.3163842326        0.9137045795        1.0154381700
	 C          -1.3529587805        0.9987422555        0.5448963629
	 H          -1.2887080920       -2.8997627566        1.6730628643
	 H          -0.4591183197       -2.4027647837       -1.4827797777
	 C          -0.2720354325       -1.6997866622        0.4031669030
	 H           3.2900983280       -3.5347107373        1.0494532404
	 H           2.7288496665       -0.9571242920        3.0336656799
	 H           3.5584394388       -0.4601263191       -0.1221769620
	 C           2.5398770532       -1.6601024135        1.1477189993
	             0.0055422214        0.0049032116        0.0095778416
	             0.0025842916       -0.0113074058        0.0033735959
	            -0.0117518510       -0.0016911432        0.0052662124
	             0.0053443342        0.0059936176       -0.0266842116
	            -0.0033995072       -0.0063639421       -0.0103721094
	             0.0124649784       -0.0022273056       -0.0039259334
	            -0.0081738396        0.0138756903        0.0295509044
	             0.0056369361        0.0098802664       -0.0064156492
	             0.0033919478        0.0064821831        0.0109991844
	            -0.0166322762       -0.0248947976       -0.0153383914
	            -0.0085114100        0.0098355453       -0.0000655021
	            -0.0026863764       -0.0036211210       -0.0108922464
	            -0.0081378157       -0.0065708593        0.0061125962
	             0.0243283668        0.0057060604        0.0088137085

	Previous optimization step data not found.  Starting new optimization.

	---Fragment 1 Intrafragment Coordinates---
	 - Coordinate -           - BOHR/RAD -       - ANG/DEG -
	 R(1,4)           =         2.020683	       1.069299
	 R(2,4)           =         2.024092	       1.071103
	 R(3,4)           =         2.019935	       1.068904
	 R(4,7)           =         2.912379	       1.541164
	 R(5,7)           =         2.022933	       1.070490
	 R(6,7)           =         2.020812	       1.069368
	 R(7,10)          =         2.910419	       1.540128
	 R(8,10)          =         2.021436	       1.069698
	 R(9,10)          =         2.021379	       1.069668
	 R(10,14)         =         2.909087	       1.539422
	 R(11,14)         =         2.021545	       1.069756
	 R(12,14)         =         2.021555	       1.069761
	 R(13,14)         =         2.022387	       1.070201
	 B(1,4,2)         =         1.910997	     109.492041
	 B(1,4,3)         =         1.911374	     109.513674
	 B(1,4,7)         =         1.909752	     109.420706
	 B(2,4,3)         =         1.910904	     109.486755
	 B(2,4,7)         =         1.910206	     109.446751
	 B(3,4,7)         =         1.910566	     109.467355
	 B(4,7,5)         =         1.910124	     109.442058
	 B(4,7,6)         =         1.912169	     109.559185
	 B(4,7,10)        =         1.911019	     109.493327
	 B(5,7,6)         =         1.910167	     109.444496
	 B(5,7,10)        =         1.909856	     109.426708
	 B(6,7,10)        =         1.910463	     109.461461
	 B(7,10,8)        =         1.910303	     109.452301
	 B(7,10,9)        =         1.910824	     109.482155
	 B(7,10,14)       =         1.911213	     109.504437
	 B(8,10,9)        =         1.910417	     109.458846
	 B(8,10,14)       =         1.910766	     109.478806
	 B(9,10,14)       =         1.910276	     109.450772
	 B(10,14,11)      =         1.910943	     109.488965
	 B(10,14,12)      =         1.911204	     109.503926
	 B(10,14,13)      =         1.911557	     109.524173
	 B(11,14,12)      =         1.910410	     109.458432
	 B(11,14,13)      =         1.910054	     109.438058
	 B(12,14,13)      =         1.909629	     109.413709
	 D(1,4,7,5)       =         3.140948	     179.963062
	 D(1,4,7,6)       =        -1.047785	     -60.033677
	 D(1,4,7,10)      =         1.047580	      60.021895
	 D(2,4,7,5)       =        -1.048198	     -60.057311
	 D(2,4,7,6)       =         1.046254	      59.945950
	 D(2,4,7,10)      =        -3.141566	    -179.998478
	 D(3,4,7,5)       =         1.046227	      59.944366
	 D(3,4,7,6)       =         3.140679	     179.947626
	 D(3,4,7,10)      =        -1.047142	     -59.996802
	 D(4,7,10,8)      =        -2.617889	    -149.994019
	 D(4,7,10,9)      =        -0.523844	     -30.014064
	 D(4,7,10,14)     =         1.570586	      89.987939
	 D(5,7,10,8)      =         1.571763	      90.055412
	 D(5,7,10,9)      =        -2.617377	    -149.964633
	 D(5,7,10,14)     =        -0.522947	     -29.962630
	 D(6,7,10,8)      =        -0.521481	     -29.878679
	 D(6,7,10,9)      =         1.572564	      90.101276
	 D(6,7,10,14)     =        -2.616191	    -149.896721
	 D(7,10,14,11)    =         3.141408	     179.989448
	 D(7,10,14,12)    =         1.046747	      59.974196
	 D(7,10,14,13)    =        -1.047335	     -60.007849
	 D(8,10,14,11)    =         1.046982	      59.987626
	 D(8,10,14,12)    =        -1.047680	     -60.027626
	 D(8,10,14,13)    =         3.141424	     179.990329
	 D(9,10,14,11)    =        -1.047012	     -59.989345
	 D(9,10,14,12)    =         3.141512	     179.995403
	 D(9,10,14,13)    =         1.047431	      60.013359

	Current energy   :      -158.1544769769

	Generating empirical Hessian (Schlegel '84) for each fragment.
	Adding user-defined constraint: Fragment 1; Coordinate 49:
		Value =     1.570586; Fixed value    =     1.570796
		Force =     0.000105; Force constant =     0.500000
	Removing off-diagonal coupling between coordinate 49 and others.
	Taking RFO optimization step.
	Going to follow RFO solution 1.
	Using RFO vector 1.

	Determining step-restricting scale parameter for RS-RFO.
	Maximum step size allowed    0.10000

	 Iter      |step|        alpha        rfo_root  
	------------------------------------------------
	    0     0.20728       1.00000           1
	    1     0.16521       3.51082           1
	    2     0.13101      11.42573           1
	    3     0.10995      23.52998           1
	    4     0.10147      31.63984           1
	    5     0.10004      33.27657           1
	    6     0.10000      33.32279           1
	------------------------------------------------
	Norm of target step-size    0.10000
	Projected energy change by RFO approximation:        -0.0041758556

	Back-transformation to cartesian coordinates...
	Successfully converged to displaced geometry.

	--- Internal Coordinate Step in ANG or DEG, aJ/ANG or AJ/DEG ---
	 ---------------------------------------------------------------------------
	   Coordinate                Previous        Force       Change         New 
	   ----------                --------       ------       ------       ------
	    1 R(1,4)          =      1.069299     0.098640     0.012359     1.081658
	    2 R(2,4)          =      1.071103     0.092902     0.011692     1.082795
	    3 R(3,4)          =      1.068904     0.104724     0.013108     1.082012
	    4 R(4,7)          =      1.541164    -0.055514    -0.008417     1.532747
	    5 R(5,7)          =      1.070490     0.100847     0.012673     1.083163
	    6 R(6,7)          =      1.069368     0.106538     0.013351     1.082718
	    7 R(7,10)         =      1.540128    -0.019047    -0.002882     1.537246
	    8 R(8,10)         =      1.069698     0.104884     0.013154     1.082852
	    9 R(9,10)         =      1.069668     0.105707     0.013256     1.082924
	   10 R(10,14)        =      1.539422    -0.048729    -0.007362     1.532060
	   11 R(11,14)        =      1.069756     0.101140     0.012687     1.082442
	   12 R(12,14)        =      1.069761     0.096162     0.012062     1.081823
	   13 R(13,14)        =      1.070201     0.097510     0.012245     1.082446
	   14 B(1,4,2)        =    109.492041    -0.000226    -0.553395   108.938646
	   15 B(1,4,3)        =    109.513674    -0.000164    -0.441113   109.072562
	   16 B(1,4,7)        =    109.420706     0.000075     0.171227   109.591933
	   17 B(2,4,3)        =    109.486755    -0.000280    -0.701075   108.785679
	   18 B(2,4,7)        =    109.446751     0.000408     1.048447   110.495198
	   19 B(3,4,7)        =    109.467355     0.000188     0.460407   109.927762
	   20 B(4,7,5)        =    109.442058    -0.000126    -0.202501   109.239558
	   21 B(4,7,6)        =    109.559185    -0.000197    -0.460409   109.098777
	   22 B(4,7,10)       =    109.493327     0.000552     1.252920   110.746247
	   23 B(5,7,6)        =    109.444496    -0.000022    -0.348225   109.096271
	   24 B(5,7,10)       =    109.426708    -0.000182    -0.369956   109.056752
	   25 B(6,7,10)       =    109.461461    -0.000026     0.117344   109.578806
	   26 B(7,10,8)       =    109.452301    -0.000030     0.104050   109.556351
	   27 B(7,10,9)       =    109.482155    -0.000187    -0.388912   109.093244
	   28 B(7,10,14)      =    109.504437     0.000556     1.262679   110.767115
	   29 B(8,10,9)       =    109.458846    -0.000023    -0.354617   109.104229
	   30 B(8,10,14)      =    109.478806    -0.000190    -0.433376   109.045430
	   31 B(9,10,14)      =    109.450772    -0.000126    -0.200695   109.250078
	   32 B(10,14,11)     =    109.488965     0.000406     1.044075   110.533040
	   33 B(10,14,12)     =    109.503926     0.000063     0.140442   109.644368
	   34 B(10,14,13)     =    109.524173     0.000182     0.445227   109.969399
	   35 B(11,14,12)     =    109.458432    -0.000220    -0.539551   108.918881
	   36 B(11,14,13)     =    109.438058    -0.000276    -0.690189   108.747869
	   37 B(12,14,13)     =    109.413709    -0.000155    -0.418388   108.995321
	   38 D(1,4,7,5)      =    179.963062     0.000019     0.343181   180.306244
	   39 D(1,4,7,6)      =    -60.033677    -0.000033    -0.480981   -60.514658
	   40 D(1,4,7,10)     =     60.021895     0.000010     0.151980    60.173875
	   41 D(2,4,7,5)      =    -60.057311     0.000023     0.417913   -59.639397
	   42 D(2,4,7,6)      =     59.945950    -0.000028    -0.406249    59.539701
	   43 D(2,4,7,10)     =   -179.998478     0.000015     0.226712  -179.771766
	   44 D(3,4,7,5)      =     59.944366     0.000028     0.495749    60.440115
	   45 D(3,4,7,6)      =    179.947626    -0.000023    -0.328413   179.619213
	   46 D(3,4,7,10)     =    -59.996802     0.000020     0.304547   -59.692254
	   47 D(4,7,10,8)     =   -149.994019     0.000009     0.145936  -149.848083
	   48 D(4,7,10,9)     =    -30.014064    -0.000028    -0.460283   -30.474348
	   49 D(4,7,10,14)    =     89.987939    -0.000012    -0.171441    89.816498
	   50 D(5,7,10,8)     =     90.055412    -0.000008    -0.144981    89.910431
	   51 D(5,7,10,9)     =   -149.964633    -0.000045    -0.751201  -150.715834
	   52 D(5,7,10,14)    =    -29.962630    -0.000028    -0.462358   -30.424988
	   53 D(6,7,10,8)     =    -29.878679     0.000027     0.433647   -29.445033
	   54 D(6,7,10,9)     =     90.101276    -0.000010    -0.172573    89.928703
	   55 D(6,7,10,14)    =   -149.896721     0.000007     0.116270  -149.780451
	   56 D(7,10,14,11)   =    179.989448     0.000015     0.231554   180.221002
	   57 D(7,10,14,12)   =     59.974196     0.000011     0.159659    60.133855
	   58 D(7,10,14,13)   =    -60.007849     0.000020     0.312202   -59.695647
	   59 D(8,10,14,11)   =     59.987626    -0.000028    -0.405962    59.581664
	   60 D(8,10,14,12)   =    -60.027626    -0.000032    -0.477857   -60.505483
	   61 D(8,10,14,13)   =    179.990329    -0.000023    -0.325314   179.665016
	   62 D(9,10,14,11)   =    -59.989345     0.000023     0.407668   -59.581676
	   63 D(9,10,14,12)   =    179.995403     0.000019     0.335773   180.331177
	   64 D(9,10,14,13)   =     60.013359     0.000028     0.488317    60.501675
	 ---------------------------------------------------------------------------
	Successfully symmetrized geometry.
	 Forces used to impose fixed constraints are not included.
	  Forces zeroed: 49 

  ==> Convergence Check <==

  Measures of convergence in internal coordinates in au.
  Criteria marked as inactive (o), active & met (*), and active & unmet ( ).
  --------------------------------------------------------------------------------------------- ~
   Step     Total Energy     Delta E     MAX Force     RMS Force      MAX Disp      RMS Disp    ~
  --------------------------------------------------------------------------------------------- ~
    Convergence Criteria    1.00e-06 *    3.00e-04 *             o    1.20e-03 *             o  ~
  --------------------------------------------------------------------------------------------- ~
      1    -158.15447698   -1.58e+02      1.29e-02      5.44e-03 o    2.52e-02      1.25e-02 o  ~
  ---------------------------------------------------------------------------------------------

	Writing optimization data to binary file.
	Structure for next step:
	Cartesian Geometry (in Angstrom)
	    H    -1.0691286732   0.6310103810  -1.8608463244
	    H    -0.9761405550   2.2063559203  -1.0783391011
	    H     0.4914031177   1.2750154472  -1.3552737524
	    C    -0.5582952944   1.2077019486  -1.1015962599
	    H    -0.2149530294   1.1096161757   1.0171754308
	    H    -1.7774051869   0.4706250294   0.5040415196
	    C    -0.7237990630   0.5248547325   0.2606231700
	    H    -0.6710011842  -1.5261376394   0.9245039987
	    H    -0.2168545657  -1.2962508244  -0.7648099240
	    C    -0.1272728866  -0.8917117617   0.2357139868
	    H     1.7674656666  -1.8646727996   0.6172090462
	    H     1.4466895492  -0.4682411124   1.6411497849
	    H     1.9095979680  -0.2399115444  -0.0434629127
	    C     1.3503248256  -0.8660910086   0.6397656460
			--------------------------
			 OPTKING Finished Execution 
			--------------------------

    Structure for next step:
    Molecular point group: c1
    Full point group: C1

    Geometry (in Angstrom), charge = 0, multiplicity = 1:

    H           -1.068897275030     0.631065768322    -1.861058224981
    H           -0.975909156863     2.206411307703    -1.078551001669
    H            0.491634515872     1.275070834535    -1.355485652945
    C           -0.558063896291     1.207757335984    -1.101808160485
    H           -0.214721631265     1.109671563049     1.016963530234
    H           -1.777173788718     0.470680416790     0.503829619057
    C           -0.723567664860     0.524910119906     0.260411269457
    H           -0.670769786002    -1.526082252022     0.924292098145
    H           -0.216623167560    -1.296195437070    -0.765021824578
    C           -0.127041488411    -0.891656374314     0.235502086248
    H            1.767697064754    -1.864617412265     0.616997145628
    H            1.446920947317    -0.468185725070     1.640937884386
    H            1.909829366116    -0.239856157010    -0.043674813208
    C            1.350556223747    -0.866035621265     0.639553745425

gradient() will perform analytic gradient computation.

*** tstart() called on cpu-6-1.local
*** at Wed Jun 14 14:34:19 2017

    SCF Algorithm Type (re)set to DF.

*** tstart() called on cpu-6-1.local
*** at Wed Jun 14 14:34:19 2017

   => Loading Basis Set <=

    Name: AUG-CC-PVTZ
    Role: ORBITAL
    Keyword: BASIS
    atoms 1-3, 5-6, 8-9, 11-13 entry H          line    34 file /cbio/jclab/home/chayas/anaconda/envs/py35/share/psi4/basis/aug-cc-pvtz.gbs 
    atoms 4, 7, 10, 14         entry C          line   221 file /cbio/jclab/home/chayas/anaconda/envs/py35/share/psi4/basis/aug-cc-pvtz.gbs 


         ---------------------------------------------------------
                                   SCF
            by Justin Turney, Rob Parrish, and Andy Simmonett
                              RHF Reference
                        1 Threads,    953 MiB Core
         ---------------------------------------------------------

  ==> Geometry <==

    Molecular point group: c1
    Full point group: C1

    Geometry (in Angstrom), charge = 0, multiplicity = 1:

       Center              X                  Y                   Z               Mass       
    ------------   -----------------  -----------------  -----------------  -----------------
           H         -1.068897275030     0.631065768322    -1.861058224981     1.007825032070
           H         -0.975909156863     2.206411307703    -1.078551001669     1.007825032070
           H          0.491634515872     1.275070834535    -1.355485652945     1.007825032070
           C         -0.558063896291     1.207757335984    -1.101808160485    12.000000000000
           H         -0.214721631265     1.109671563049     1.016963530234     1.007825032070
           H         -1.777173788718     0.470680416790     0.503829619057     1.007825032070
           C         -0.723567664860     0.524910119906     0.260411269457    12.000000000000
           H         -0.670769786002    -1.526082252022     0.924292098145     1.007825032070
           H         -0.216623167560    -1.296195437070    -0.765021824578     1.007825032070
           C         -0.127041488411    -0.891656374314     0.235502086248    12.000000000000
           H          1.767697064754    -1.864617412265     0.616997145628     1.007825032070
           H          1.446920947317    -0.468185725070     1.640937884386     1.007825032070
           H          1.909829366116    -0.239856157010    -0.043674813208     1.007825032070
           C          1.350556223747    -0.866035621265     0.639553745425    12.000000000000

  Running in c1 symmetry.

  Rotational constants: A =      0.48959  B =      0.14804  C =      0.13623 [cm^-1]
  Rotational constants: A =  14677.43535  B =   4438.04567  C =   4084.05479 [MHz]
  Nuclear repulsion =  132.911403804845662

  Charge       = 0
  Multiplicity = 1
  Electrons    = 34
  Nalpha       = 17
  Nbeta        = 17

  ==> Algorithm <==

  SCF Algorithm Type is DF.
  DIIS enabled.
  MOM disabled.
  Fractional occupation disabled.
  Guess Type is READ.
  Energy threshold   = 1.00e-10
  Density threshold  = 1.00e-10
  Integral threshold = 0.00e+00

  ==> Primary Basis <==

  Basis Set: AUG-CC-PVTZ
    Blend: AUG-CC-PVTZ
    Number of shells: 146
    Number of basis function: 414
    Number of Cartesian functions: 470
    Spherical Harmonics?: true
    Max angular momentum: 3

   => Loading Basis Set <=

    Name: (AUG-CC-PVTZ AUX)
    Role: JKFIT
    Keyword: DF_BASIS_SCF
    atoms 1-3, 5-6, 8-9, 11-13 entry H          line    69 file /cbio/jclab/home/chayas/anaconda/envs/py35/share/psi4/basis/aug-cc-pvtz-jkfit.gbs 
    atoms 4, 7, 10, 14         entry C          line   161 file /cbio/jclab/home/chayas/anaconda/envs/py35/share/psi4/basis/aug-cc-pvtz-jkfit.gbs 

  Reading orbitals from file 180, no projection.

  ==> Pre-Iterations <==

   -------------------------------------------------------
    Irrep   Nso     Nmo     Nalpha   Nbeta   Ndocc  Nsocc
   -------------------------------------------------------
     A        414     414       0       0       0       0
   -------------------------------------------------------
    Total     414     414      17      17      17       0
   -------------------------------------------------------

  ==> Integral Setup <==

  ==> DFJK: Density-Fitted J/K Matrices <==

    J tasked:                  Yes
    K tasked:                  Yes
    wK tasked:                  No
    OpenMP threads:              1
    Integrals threads:           1
    Memory (MB):               715
    Algorithm:                Core
    Integral Cache:           NONE
    Schwarz Cutoff:          1E-12
    Fitting Condition:       1E-12

   => Auxiliary Basis Set <=

  Basis Set: (AUG-CC-PVTZ AUX)
    Blend: AUG-CC-PVTZ-JKFIT
    Number of shells: 260
    Number of basis function: 876
    Number of Cartesian functions: 1074
    Spherical Harmonics?: true
    Max angular momentum: 4

  Minimum eigenvalue in the overlap matrix is 7.0909916700E-06.
  Using Symmetric Orthogonalization.

  SCF Guess: Orbitals guess was supplied from a previous computation.

  ==> Iterations <==

                           Total Energy        Delta E     RMS |[F,P]|

   @DF-RHF iter   0:  -157.26121013905129   -1.57261e+02   1.69267e-04 
   @DF-RHF iter   1:  -157.35115513854993   -8.99450e-02   6.97440e-05 
   @DF-RHF iter   2:  -157.35166234552068   -5.07207e-04   3.62450e-05 DIIS
   @DF-RHF iter   3:  -157.35177445994518   -1.12114e-04   5.80136e-06 DIIS
   @DF-RHF iter   4:  -157.35178210190338   -7.64196e-06   1.27684e-06 DIIS
   @DF-RHF iter   5:  -157.35178241967841   -3.17775e-07   4.26645e-07 DIIS
   @DF-RHF iter   6:  -157.35178244712270   -2.74443e-08   8.71744e-08 DIIS
   @DF-RHF iter   7:  -157.35178244871810   -1.59540e-09   1.65844e-08 DIIS
   @DF-RHF iter   8:  -157.35178244877733   -5.92308e-11   3.86082e-09 DIIS
   @DF-RHF iter   9:  -157.35178244877915   -1.81899e-12   8.17337e-10 DIIS
   @DF-RHF iter  10:  -157.35178244877963   -4.83169e-13   1.60346e-10 DIIS
   @DF-RHF iter  11:  -157.35178244877855    1.08002e-12   3.22474e-11 DIIS

  ==> Post-Iterations <==

    Orbital Energies (a.u.)
    -----------------------

    Doubly Occupied:                                                      

       1A    -11.210017     2A    -11.209427     3A    -11.204500  
       4A    -11.204470     5A     -1.071528     6A     -0.977058  
       7A     -0.866744     8A     -0.783970     9A     -0.628638  
      10A     -0.618416    11A     -0.578512    12A     -0.540949  
      13A     -0.522547    14A     -0.504943    15A     -0.469623  
      16A     -0.456947    17A     -0.451030  

    Virtual:                                                              

      18A      0.032065    19A      0.037724    20A      0.039736  
      21A      0.041161    22A      0.057170    23A      0.058735  
      24A      0.059094    25A      0.061479    26A      0.081499  
      27A      0.082977    28A      0.100107    29A      0.121151  
      30A      0.122341    31A      0.126644    32A      0.129019  
      33A      0.132993    34A      0.139672    35A      0.144232  
      36A      0.155881    37A      0.155956    38A      0.161262  
      39A      0.165592    40A      0.176472    41A      0.192117  
      42A      0.209622    43A      0.213951    44A      0.241621  
      45A      0.246932    46A      0.247864    47A      0.252705  
      48A      0.272726    49A      0.273023    50A      0.298295  
      51A      0.301078    52A      0.306681    53A      0.311383  
      54A      0.322152    55A      0.330570    56A      0.334984  
      57A      0.346490    58A      0.359530    59A      0.359981  
      60A      0.363076    61A      0.364745    62A      0.371791  
      63A      0.383702    64A      0.386278    65A      0.389731  
      66A      0.395939    67A      0.402787    68A      0.405671  
      69A      0.418696    70A      0.424179    71A      0.426485  
      72A      0.436537    73A      0.439999    74A      0.444546  
      75A      0.448873    76A      0.452655    77A      0.465142  
      78A      0.473882    79A      0.477728    80A      0.484849  
      81A      0.485809    82A      0.488231    83A      0.499265  
      84A      0.504246    85A      0.519547    86A      0.524477  
      87A      0.525531    88A      0.535871    89A      0.537112  
      90A      0.543455    91A      0.563636    92A      0.572603  
      93A      0.579088    94A      0.589951    95A      0.595626  
      96A      0.597516    97A      0.606096    98A      0.611018  
      99A      0.621420   100A      0.629025   101A      0.633559  
     102A      0.646450   103A      0.658690   104A      0.672908  
     105A      0.679512   106A      0.729769   107A      0.747132  
     108A      0.782625   109A      0.796790   110A      0.814864  
     111A      0.825963   112A      0.829385   113A      0.832536  
     114A      0.845055   115A      0.849295   116A      0.854393  
     117A      0.855273   118A      0.866151   119A      0.877361  
     120A      0.880572   121A      0.886820   122A      0.898897  
     123A      0.910131   124A      0.915755   125A      0.919126  
     126A      0.923693   127A      0.933811   128A      0.942514  
     129A      0.946034   130A      0.968659   131A      0.972295  
     132A      0.979052   133A      0.987400   134A      0.997055  
     135A      1.007957   136A      1.019245   137A      1.031707  
     138A      1.045475   139A      1.049333   140A      1.058278  
     141A      1.077492   142A      1.090177   143A      1.102263  
     144A      1.105799   145A      1.124225   146A      1.130049  
     147A      1.133779   148A      1.140490   149A      1.145790  
     150A      1.159038   151A      1.169752   152A      1.176507  
     153A      1.185135   154A      1.192594   155A      1.197490  
     156A      1.216268   157A      1.225057   158A      1.239598  
     159A      1.247686   160A      1.247798   161A      1.267226  
     162A      1.280299   163A      1.284867   164A      1.294710  
     165A      1.305001   166A      1.311009   167A      1.336038  
     168A      1.343708   169A      1.360629   170A      1.377207  
     171A      1.378018   172A      1.391870   173A      1.418087  
     174A      1.421093   175A      1.421166   176A      1.440106  
     177A      1.470835   178A      1.473076   179A      1.477589  
     180A      1.513002   181A      1.515586   182A      1.533741  
     183A      1.542177   184A      1.574906   185A      1.580778  
     186A      1.582023   187A      1.600163   188A      1.607132  
     189A      1.623784   190A      1.628026   191A      1.663070  
     192A      1.673174   193A      1.680093   194A      1.681565  
     195A      1.689438   196A      1.708983   197A      1.710902  
     198A      1.723248   199A      1.739374   200A      1.749068  
     201A      1.755910   202A      1.759786   203A      1.765236  
     204A      1.784502   205A      1.794535   206A      1.807562  
     207A      1.814495   208A      1.828199   209A      1.835615  
     210A      1.847032   211A      1.857708   212A      1.870079  
     213A      1.875541   214A      1.896826   215A      1.920365  
     216A      1.953005   217A      1.955531   218A      1.967760  
     219A      1.984852   220A      2.004530   221A      2.019604  
     222A      2.021360   223A      2.049706   224A      2.057743  
     225A      2.069298   226A      2.069792   227A      2.088128  
     228A      2.101935   229A      2.111505   230A      2.120131  
     231A      2.185533   232A      2.197564   233A      2.211433  
     234A      2.213835   235A      2.225633   236A      2.244139  
     237A      2.266208   238A      2.271474   239A      2.289288  
     240A      2.303975   241A      2.318147   242A      2.329253  
     243A      2.357995   244A      2.359054   245A      2.368371  
     246A      2.421547   247A      2.423507   248A      2.448017  
     249A      2.449073   250A      2.487372   251A      2.495101  
     252A      2.537300   253A      2.552990   254A      2.577287  
     255A      2.583523   256A      2.631395   257A      2.792578  
     258A      2.841638   259A      3.004366   260A      3.055034  
     261A      3.216583   262A      3.272797   263A      3.290011  
     264A      3.362793   265A      3.389207   266A      3.420104  
     267A      3.464357   268A      3.500524   269A      3.503470  
     270A      3.519787   271A      3.524096   272A      3.535824  
     273A      3.558305   274A      3.581514   275A      3.596836  
     276A      3.609886   277A      3.630358   278A      3.687044  
     279A      3.693539   280A      3.696631   281A      3.702878  
     282A      3.713512   283A      3.714938   284A      3.753729  
     285A      3.758145   286A      3.794035   287A      3.802947  
     288A      3.809896   289A      3.815643   290A      3.832016  
     291A      3.840882   292A      3.844113   293A      3.854417  
     294A      3.874783   295A      3.940554   296A      3.949686  
     297A      3.970611   298A      3.975068   299A      3.980880  
     300A      3.992024   301A      3.997341   302A      4.015398  
     303A      4.023669   304A      4.030562   305A      4.047471  
     306A      4.072139   307A      4.078616   308A      4.092999  
     309A      4.116208   310A      4.157764   311A      4.185380  
     312A      4.197447   313A      4.205515   314A      4.225614  
     315A      4.235899   316A      4.253939   317A      4.261540  
     318A      4.280346   319A      4.308468   320A      4.323922  
     321A      4.346370   322A      4.350060   323A      4.377100  
     324A      4.415215   325A      4.417410   326A      4.428415  
     327A      4.485889   328A      4.511692   329A      4.574150  
     330A      4.586258   331A      4.615518   332A      4.625248  
     333A      4.665705   334A      4.671383   335A      4.702150  
     336A      4.722520   337A      4.739885   338A      4.783096  
     339A      4.802954   340A      4.809490   341A      4.813281  
     342A      4.856901   343A      4.871647   344A      4.878894  
     345A      4.885525   346A      4.913773   347A      4.923188  
     348A      4.955020   349A      4.955775   350A      4.989285  
     351A      4.993742   352A      5.019723   353A      5.040692  
     354A      5.076700   355A      5.101089   356A      5.128105  
     357A      5.151346   358A      5.189433   359A      5.191666  
     360A      5.219782   361A      5.241913   362A      5.258278  
     363A      5.263371   364A      5.289900   365A      5.290479  
     366A      5.309897   367A      5.358519   368A      5.385966  
     369A      5.404281   370A      5.430583   371A      5.443335  
     372A      5.465878   373A      5.475310   374A      5.506761  
     375A      5.539746   376A      5.579426   377A      5.595358  
     378A      5.614013   379A      5.643619   380A      5.656175  
     381A      5.695941   382A      5.731186   383A      5.754927  
     384A      5.791047   385A      5.811747   386A      5.820524  
     387A      5.835626   388A      5.905130   389A      5.909879  
     390A      6.039176   391A      6.069430   392A      6.103550  
     393A      6.132324   394A      6.155436   395A      6.203931  
     396A      6.239960   397A      6.266463   398A      6.284549  
     399A      6.291783   400A      6.347861   401A      6.359037  
     402A      6.444766   403A      6.582797   404A      6.583315  
     405A      6.775050   406A      6.776711   407A      6.819862  
     408A      6.864751   409A      6.932818   410A      6.973478  
     411A     17.931503   412A     18.174656   413A     18.631802  
     414A     19.088911  

    Final Occupation by Irrep:
              A 
    DOCC [    17 ]

  Energy converged.

  @DF-RHF Final Energy:  -157.35178244877855

   => Energetics <=

    Nuclear Repulsion Energy =            132.9114038048456621
    One-Electron Energy =                -473.9277326352842010
    Two-Electron Energy =                 183.6645463816599602
    DFT Exchange-Correlation Energy =       0.0000000000000000
    Empirical Dispersion Energy =           0.0000000000000000
    PCM Polarization Energy =               0.0000000000000000
    EFP Energy =                            0.0000000000000000
    Total Energy =                       -157.3517824487785504



Properties will be evaluated at   0.000000,   0.000000,   0.000000 Bohr

Properties computed using the SCF density matrix

  Nuclear Dipole Moment: (a.u.)
     X:     0.6487      Y:     0.2793      Z:    -0.3757

  Electronic Dipole Moment: (a.u.)
     X:    -0.6808      Y:    -0.2934      Z:     0.3945

  Dipole Moment: (a.u.)
     X:    -0.0320      Y:    -0.0140      Z:     0.0188     Total:     0.0397

  Dipole Moment: (Debye)
     X:    -0.0814      Y:    -0.0357      Z:     0.0477     Total:     0.1009


*** tstop() called on cpu-6-1.local at Wed Jun 14 14:35:57 2017
Module time:
	user time   =      97.49 seconds =       1.62 minutes
	system time =       0.49 seconds =       0.01 minutes
	total time  =         98 seconds =       1.63 minutes
Total time:
	user time   =     476.45 seconds =       7.94 minutes
	system time =       4.03 seconds =       0.07 minutes
	total time  =        481 seconds =       8.02 minutes

  //>>>>>>>>>>>>>>>>>>>>>>>>>>>>>>>>>>>//
  //               DFMP2               //
  //<<<<<<<<<<<<<<<<<<<<<<<<<<<<<<<<<<<//

   => Loading Basis Set <=

    Name: (AUG-CC-PVTZ AUX)
    Role: RIFIT
    Keyword: DF_BASIS_MP2
    atoms 1-3, 5-6, 8-9, 11-13 entry H          line    29 file /cbio/jclab/home/chayas/anaconda/envs/py35/share/psi4/basis/aug-cc-pvtz-ri.gbs 
    atoms 4, 7, 10, 14         entry C          line   147 file /cbio/jclab/home/chayas/anaconda/envs/py35/share/psi4/basis/aug-cc-pvtz-ri.gbs 

	 --------------------------------------------------------
	                          DF-MP2                         
	      2nd-Order Density-Fitted Moller-Plesset Theory     
	              RMP2 Wavefunction,   1 Threads             
	                                                         
	        Rob Parrish, Justin Turney, Andy Simmonett,      
	           Ed Hohenstein, and C. David Sherrill          
	 --------------------------------------------------------

   => Auxiliary Basis Set <=

  Basis Set: (AUG-CC-PVTZ AUX)
    Blend: AUG-CC-PVTZ-RI
    Number of shells: 252
    Number of basis function: 884
    Number of Cartesian functions: 1094
    Spherical Harmonics?: true
    Max angular momentum: 4

	 --------------------------------------------------------
	                 NBF =   414, NAUX =   884
	 --------------------------------------------------------
	   CLASS    FOCC     OCC    AOCC    AVIR     VIR    FVIR
	   PAIRS       0      17      17     397     397       0
	 --------------------------------------------------------


         ------------------------------------------------------------
                                     CPHF                           
                                  Rob Parrish                       
         ------------------------------------------------------------

  ==> Geometry <==

    Molecular point group: c1
    Full point group: C1

    Geometry (in Angstrom), charge = 0, multiplicity = 1:

       Center              X                  Y                   Z               Mass       
    ------------   -----------------  -----------------  -----------------  -----------------
           H         -1.068897275030     0.631065768322    -1.861058224981     1.007825032070
           H         -0.975909156863     2.206411307703    -1.078551001669     1.007825032070
           H          0.491634515872     1.275070834535    -1.355485652945     1.007825032070
           C         -0.558063896291     1.207757335984    -1.101808160485    12.000000000000
           H         -0.214721631265     1.109671563049     1.016963530234     1.007825032070
           H         -1.777173788718     0.470680416790     0.503829619057     1.007825032070
           C         -0.723567664860     0.524910119906     0.260411269457    12.000000000000
           H         -0.670769786002    -1.526082252022     0.924292098145     1.007825032070
           H         -0.216623167560    -1.296195437070    -0.765021824578     1.007825032070
           C         -0.127041488411    -0.891656374314     0.235502086248    12.000000000000
           H          1.767697064754    -1.864617412265     0.616997145628     1.007825032070
           H          1.446920947317    -0.468185725070     1.640937884386     1.007825032070
           H          1.909829366116    -0.239856157010    -0.043674813208     1.007825032070
           C          1.350556223747    -0.866035621265     0.639553745425    12.000000000000

  Nuclear repulsion =  132.911403804845662
  Reference energy  = -157.351782448778550

  ==> Basis Set <==

  Basis Set: AUG-CC-PVTZ
    Blend: AUG-CC-PVTZ
    Number of shells: 146
    Number of basis function: 414
    Number of Cartesian functions: 470
    Spherical Harmonics?: true
    Max angular momentum: 3

  ==> CGRSolver (by Rob Parrish) <==

   Number of roots    =         1
   Preconditioning    =    JACOBI
   Convergence cutoff =     1E-06
   Maximum iterations =       100

  ==> CPHFRHamiltonian (by Rob Parrish) <== 

  ==> DFJK: Density-Fitted J/K Matrices <==

    J tasked:                  Yes
    K tasked:                  Yes
    wK tasked:                  No
    OpenMP threads:              1
    Integrals threads:           1
    Memory (MB):               715
    Algorithm:                Core
    Integral Cache:           NONE
    Schwarz Cutoff:          1E-12
    Fitting Condition:       1E-12

   => Auxiliary Basis Set <=

  Basis Set: (AUG-CC-PVTZ AUX)
    Blend: AUG-CC-PVTZ-JKFIT
    Number of shells: 260
    Number of basis function: 876
    Number of Cartesian functions: 1074
    Spherical Harmonics?: true
    Max angular momentum: 4

  ==> CPHF Iterations <==

  => Iterations <=

             Iter  Converged  Remaining    Residual
  CGR           1          0          1   8.543E-02
  CGR           2          0          1   1.361E-02
  CGR           3          0          1   3.312E-03
  CGR           4          0          1   8.280E-04
  CGR           5          0          1   1.739E-04
  CGR           6          0          1   3.234E-05
  CGR           7          0          1   5.744E-06
  CGR           8          0          1   1.135E-06
  CGR           9          1          0   1.552E-07

    CGRSolver converged.

  ==> DFCorrGrad: Density-Fitted Correlated Gradients <==

    OpenMP threads:              1
    Integrals threads:           1
    Memory (MB):               715
    Schwarz Cutoff:          0E+00
    Fitting Condition:       1E-12

   => Auxiliary Basis Set <=

  Basis Set: (AUG-CC-PVTZ AUX)
    Blend: AUG-CC-PVTZ-JKFIT
    Number of shells: 260
    Number of basis function: 876
    Number of Cartesian functions: 1074
    Spherical Harmonics?: true
    Max angular momentum: 4

	-----------------------------------------------------------
	 ==================> DF-MP2 Energies <==================== 
	-----------------------------------------------------------
	 Reference Energy          =    -157.3517824487785504 [Eh]
	 Singles Energy            =      -0.0000000000000000 [Eh]
	 Same-Spin Energy          =      -0.1656642508879264 [Eh]
	 Opposite-Spin Energy      =      -0.6399288829551795 [Eh]
	 Correlation Energy        =      -0.8055931338431059 [Eh]
	 Total Energy              =    -158.1573755826216541 [Eh]
	-----------------------------------------------------------
	 ================> DF-SCS-MP2 Energies <================== 
	-----------------------------------------------------------
	 SCS Same-Spin Scale       =       0.3333333333333333 [-]
	 SCS Opposite-Spin Scale   =       1.2000000000000000 [-]
	 SCS Same-Spin Energy      =      -0.0552214169626421 [Eh]
	 SCS Opposite-Spin Energy  =      -0.7679146595462153 [Eh]
	 SCS Correlation Energy    =      -0.8231360765088575 [Eh]
	 SCS Total Energy          =    -158.1749185252874099 [Eh]
	-----------------------------------------------------------


  -Total Gradient:
     Atom            X                  Y                   Z
    ------   -----------------  -----------------  -----------------
       1        0.001285671329     0.000890658282     0.003671676874
       2        0.000216375647    -0.003283814698     0.002038074992
       3       -0.003243934190    -0.000815627372     0.002876732340
       4        0.001867140608     0.002625188657    -0.013875977800
       5        0.001091058831    -0.002257115701    -0.004665922913
       6        0.003367486668    -0.001751882350    -0.002314096472
       7       -0.003920021237     0.007998042004     0.016008764250
       8        0.001849032037     0.003970522160    -0.000615739760
       9        0.002664203250     0.003889409679     0.002644329458
      10       -0.008625017286    -0.013470311346    -0.008787769648
      11       -0.003386963862     0.002184164584    -0.000204258894
      12       -0.001795928201    -0.001094562359    -0.003248772738
      13       -0.003479952132    -0.002007916986     0.001050160579
      14        0.012110848539     0.003123245447     0.005422799732


*** tstop() called on cpu-6-1.local at Wed Jun 14 14:42:05 2017
Module time:
	user time   =     462.38 seconds =       7.71 minutes
	system time =       3.54 seconds =       0.06 minutes
	total time  =        466 seconds =       7.77 minutes
Total time:
	user time   =     841.34 seconds =      14.02 minutes
	system time =       7.08 seconds =       0.12 minutes
	total time  =        849 seconds =      14.15 minutes

			-----------------------------------------
			 OPTKING 2.0: for geometry optimizations 
			  - R.A. King,  Bethel University        
			-----------------------------------------

	Previous internal coordinate definitions found.
	---Fragment 1 Geometry and Gradient---
	 H          -2.0199231140        1.1925414740       -3.5168903626
	 H          -1.8442010370        4.1695131081       -2.0381660135
	 H           0.9290545925        2.4095346773       -2.5614966611
	 C          -1.0545879286        2.2823306000       -2.0821156743
	 H          -0.4057650779        2.0969753516        1.9217825593
	 H          -3.3583717512        0.8894570838        0.9520999977
	 C          -1.3673447252        0.9919363710        0.4921059812
	 H          -1.2675711938       -2.8838775126        1.7466589323
	 H          -0.4093584607       -2.4494543908       -1.4456817341
	 C          -0.2400736206       -1.6849863521        0.4450344467
	 H           3.3404633383       -3.5236162518        1.1659556300
	 H           2.7342843264       -0.8847427997        3.1009232026
	 H           3.6090544625       -0.4532624480       -0.0825334359
	 C           2.5521813899       -1.6365701455        1.2085814261
	             0.0012856713        0.0008906583        0.0036716769
	             0.0002163756       -0.0032838147        0.0020380750
	            -0.0032439342       -0.0008156274        0.0028767323
	             0.0018671406        0.0026251887       -0.0138759778
	             0.0010910588       -0.0022571157       -0.0046659229
	             0.0033674867       -0.0017518823       -0.0023140965
	            -0.0039200212        0.0079980420        0.0160087642
	             0.0018490320        0.0039705222       -0.0006157398
	             0.0026642033        0.0038894097        0.0026443295
	            -0.0086250173       -0.0134703113       -0.0087877696
	            -0.0033869639        0.0021841646       -0.0002042589
	            -0.0017959282       -0.0010945624       -0.0032487727
	            -0.0034799521       -0.0020079170        0.0010501606
	             0.0121108485        0.0031232454        0.0054227997

	---Fragment 1 Intrafragment Coordinates---
	 - Coordinate -           - BOHR/RAD -       - ANG/DEG -
	 R(1,4)           =         2.044038	       1.081658
	 R(2,4)           =         2.046186	       1.082795
	 R(3,4)           =         2.044706	       1.082012
	 R(4,7)           =         2.896472	       1.532747
	 R(5,7)           =         2.046881	       1.083163
	 R(6,7)           =         2.046041	       1.082718
	 R(7,10)          =         2.904974	       1.537246
	 R(8,10)          =         2.046294	       1.082852
	 R(9,10)          =         2.046430	       1.082924
	 R(10,14)         =         2.895175	       1.532060
	 R(11,14)         =         2.045519	       1.082442
	 R(12,14)         =         2.044349	       1.081823
	 R(13,14)         =         2.045526	       1.082446
	 B(1,4,2)         =         1.901338	     108.938646
	 B(1,4,3)         =         1.903675	     109.072562
	 B(1,4,7)         =         1.912740	     109.591933
	 B(2,4,3)         =         1.898668	     108.785679
	 B(2,4,7)         =         1.928505	     110.495198
	 B(3,4,7)         =         1.918601	     109.927762
	 B(4,7,5)         =         1.906590	     109.239558
	 B(4,7,6)         =         1.904133	     109.098777
	 B(4,7,10)        =         1.932887	     110.746247
	 B(5,7,6)         =         1.904089	     109.096271
	 B(5,7,10)        =         1.903399	     109.056752
	 B(6,7,10)        =         1.912511	     109.578806
	 B(7,10,8)        =         1.912119	     109.556351
	 B(7,10,9)        =         1.904036	     109.093244
	 B(7,10,14)       =         1.933251	     110.767115
	 B(8,10,9)        =         1.904228	     109.104229
	 B(8,10,14)       =         1.903202	     109.045430
	 B(9,10,14)       =         1.906774	     109.250078
	 B(10,14,11)      =         1.929165	     110.533040
	 B(10,14,12)      =         1.913655	     109.644368
	 B(10,14,13)      =         1.919328	     109.969399
	 B(11,14,12)      =         1.900993	     108.918881
	 B(11,14,13)      =         1.898008	     108.747869
	 B(12,14,13)      =         1.902327	     108.995321
	 D(1,4,7,5)       =        -3.136248	    -179.693756
	 D(1,4,7,6)       =        -1.056180	     -60.514658
	 D(1,4,7,10)      =         1.050232	      60.173875
	 D(2,4,7,5)       =        -1.040904	     -59.639397
	 D(2,4,7,6)       =         1.039164	      59.539701
	 D(2,4,7,10)      =        -3.137609	    -179.771766
	 D(3,4,7,5)       =         1.054879	      60.440115
	 D(3,4,7,6)       =         3.134947	     179.619213
	 D(3,4,7,10)      =        -1.041826	     -59.692254
	 D(4,7,10,8)      =        -2.615342	    -149.848083
	 D(4,7,10,9)      =        -0.531878	     -30.474348
	 D(4,7,10,14)     =         1.567594	      89.816498
	 D(5,7,10,8)      =         1.569233	      89.910431
	 D(5,7,10,9)      =        -2.630488	    -150.715834
	 D(5,7,10,14)     =        -0.531016	     -30.424988
	 D(6,7,10,8)      =        -0.513913	     -29.445033
	 D(6,7,10,9)      =         1.569552	      89.928703
	 D(6,7,10,14)     =        -2.614162	    -149.780451
	 D(7,10,14,11)    =        -3.137735	    -179.778998
	 D(7,10,14,12)    =         1.049534	      60.133855
	 D(7,10,14,13)    =        -1.041886	     -59.695647
	 D(8,10,14,11)    =         1.039896	      59.581664
	 D(8,10,14,12)    =        -1.056020	     -60.505483
	 D(8,10,14,13)    =         3.135746	     179.665016
	 D(9,10,14,11)    =        -1.039896	     -59.581676
	 D(9,10,14,12)    =        -3.135813	    -179.668823
	 D(9,10,14,13)    =         1.055953	      60.501675

	Current energy   :      -158.1573755826

	Energy change for the previous step:
		Projected    :        -0.0041758556
		Actual       :        -0.0028986057

	Performing BFGS update.
	Previous computed or guess Hessian on step 1.
	Steps to be used in Hessian update: 1
	Adding user-defined constraint: Fragment 1; Coordinate 49:
		Value =     1.567594; Fixed value    =     1.570800
		Force =     0.001683; Force constant =     0.525000
	Removing off-diagonal coupling between coordinate 49 and others.
	Taking RFO optimization step.
	Going to follow RFO solution 1.
	Using RFO vector 1.

	Determining step-restricting scale parameter for RS-RFO.
	Maximum step size allowed    0.10000

	 Iter      |step|        alpha        rfo_root  
	------------------------------------------------
	    0     0.22102       1.00000           1
	    1     0.16322       3.12442           1
	    2     0.13085       7.87825           1
	    3     0.11065      15.91031           1
	    4     0.10173      22.02038           1
	    5     0.10006      23.42692           1
	    6     0.10000      23.47607           1
	------------------------------------------------
	Norm of target step-size    0.10000
	Projected energy change by RFO approximation:        -0.0021984160

	Back-transformation to cartesian coordinates...
	Could not converge backtransformation.
	Using first guess instead.

	--- Internal Coordinate Step in ANG or DEG, aJ/ANG or AJ/DEG ---
	 ---------------------------------------------------------------------------
	   Coordinate                Previous        Force       Change         New 
	   ----------                --------       ------       ------       ------
	    1 R(1,4)          =      1.081658     0.030148     0.005788     1.087446
	    2 R(2,4)          =      1.082795     0.025279     0.004648     1.087444
	    3 R(3,4)          =      1.082012     0.031902     0.006254     1.088267
	    4 R(4,7)          =      1.532747    -0.036700    -0.009761     1.522986
	    5 R(5,7)          =      1.083163     0.032666     0.006449     1.089612
	    6 R(6,7)          =      1.082718     0.030561     0.005681     1.088399
	    7 R(7,10)         =      1.537246    -0.024231    -0.006869     1.530377
	    8 R(8,10)         =      1.082852     0.030041     0.005587     1.088439
	    9 R(9,10)         =      1.082924     0.033914     0.006659     1.089583
	   10 R(10,14)        =      1.532060    -0.034263    -0.009157     1.522903
	   11 R(11,14)        =      1.082442     0.027319     0.004995     1.087438
	   12 R(12,14)        =      1.081823     0.029410     0.005647     1.087470
	   13 R(13,14)        =      1.082446     0.029844     0.005874     1.088320
	   14 B(1,4,2)        =    108.938646    -0.000144    -0.647037   108.291609
	   15 B(1,4,3)        =    109.072562    -0.000149    -0.805681   108.266881
	   16 B(1,4,7)        =    109.591933     0.000098     0.502322   110.094255
	   17 B(2,4,3)        =    108.785679    -0.000173    -0.777617   108.008062
	   18 B(2,4,7)        =    110.495198     0.000200     0.885080   111.380278
	   19 B(3,4,7)        =    109.927762     0.000158     0.771905   110.699667
	   20 B(4,7,5)        =    109.239558    -0.000025     0.179377   109.418935
	   21 B(4,7,6)        =    109.098777    -0.000075    -0.215914   108.882863
	   22 B(4,7,10)       =    110.746247     0.000243     1.088440   111.834687
	   23 B(5,7,6)        =    109.096271    -0.000082    -1.172369   107.923902
	   24 B(5,7,10)       =    109.056752    -0.000068    -0.102576   108.954176
	   25 B(6,7,10)       =    109.578806     0.000002     0.165663   109.744469
	   26 B(7,10,8)       =    109.556351     0.000003     0.179341   109.735692
	   27 B(7,10,9)       =    109.093244    -0.000070    -0.121948   108.971296
	   28 B(7,10,14)      =    110.767115     0.000240     1.068527   111.835643
	   29 B(8,10,9)       =    109.104229    -0.000083    -1.179760   107.924469
	   30 B(8,10,14)      =    109.045430    -0.000070    -0.181880   108.863550
	   31 B(9,10,14)      =    109.250078    -0.000024     0.178334   109.428412
	   32 B(10,14,11)     =    110.533040     0.000196     0.855127   111.388167
	   33 B(10,14,12)     =    109.644368     0.000090     0.461722   110.106090
	   34 B(10,14,13)     =    109.969399     0.000153     0.748207   110.717606
	   35 B(11,14,12)     =    108.918881    -0.000139    -0.628625   108.290256
	   36 B(11,14,13)     =    108.747869    -0.000168    -0.752031   107.995838
	   37 B(12,14,13)     =    108.995321    -0.000140    -0.754337   108.240985
	   38 D(1,4,7,5)      =   -179.693756     0.000016     0.888004  -178.805752
	   39 D(1,4,7,6)      =    -60.514658    -0.000020    -0.551321   -61.065979
	   40 D(1,4,7,10)     =     60.173875     0.000005     0.205280    60.379154
	   41 D(2,4,7,5)      =    -59.639397     0.000019     0.973916   -58.665481
	   42 D(2,4,7,6)      =     59.539701    -0.000017    -0.465408    59.074293
[...]
	 Same-Spin Energy          =      -0.1656664189024076 [Eh]
	 Opposite-Spin Energy      =      -0.6398759622793427 [Eh]
	 Correlation Energy        =      -0.8055423811817504 [Eh]
	 Total Energy              =    -158.1585410907032099 [Eh]
	-----------------------------------------------------------
	 ================> DF-SCS-MP2 Energies <================== 
	-----------------------------------------------------------
	 SCS Same-Spin Scale       =       0.3333333333333333 [-]
	 SCS Opposite-Spin Scale   =       1.2000000000000000 [-]
	 SCS Same-Spin Energy      =      -0.0552221396341359 [Eh]
	 SCS Opposite-Spin Energy  =      -0.7678511547352113 [Eh]
	 SCS Correlation Energy    =      -0.8230732943693472 [Eh]
	 SCS Total Energy          =    -158.1760720038908232 [Eh]
	-----------------------------------------------------------


  -Total Gradient:
     Atom            X                  Y                   Z
    ------   -----------------  -----------------  -----------------
       1       -0.000000774582     0.000000181971     0.000008486348
       2        0.000000492652    -0.000000780506     0.000001430722
       3       -0.000004082176     0.000004262575    -0.000005862177
       4       -0.002123806717    -0.000924449129    -0.000708391280
       5       -0.000013737775    -0.000003282302     0.000001033494
       6       -0.000004726907     0.000003658027    -0.000005164257
       7        0.002705492731     0.001174126101     0.001849971954
       8        0.000004533969    -0.000003836392     0.000005340387
       9       -0.000006826145    -0.000005498813     0.000011028581
      10        0.000080580188     0.000025923248    -0.003480316283
      11       -0.000001774914     0.000000676965    -0.000000938453
      12       -0.000006687892    -0.000003340413    -0.000004176764
      13        0.000005720619    -0.000003362611     0.000004796329
      14       -0.000634403052    -0.000264278721     0.002322761401


*** tstop() called on cpu-6-1.local at Wed Jun 14 15:24:45 2017
Module time:
	user time   =     436.74 seconds =       7.28 minutes
	system time =       3.44 seconds =       0.06 minutes
	total time  =        440 seconds =       7.33 minutes
Total time:
	user time   =    3380.66 seconds =      56.34 minutes
	system time =      28.05 seconds =       0.47 minutes
	total time  =       3409 seconds =      56.82 minutes

			-----------------------------------------
			 OPTKING 2.0: for geometry optimizations 
			  - R.A. King,  Bethel University        
			-----------------------------------------

	Previous internal coordinate definitions found.
	---Fragment 1 Geometry and Gradient---
	 H          -2.1128735392        1.2419834773       -3.5360600505
	 H          -1.8027848656        4.2028131081       -2.0491752921
	 H           0.8929325048        2.3616977873       -2.6664769367
	 C          -1.0810932379        2.2788114517       -2.0912314470
	 H          -0.4755714573        2.1181683477        1.9279571877
	 H          -3.3643936864        0.8752427383        0.9228485580
	 C          -1.3622377957        0.9829400813        0.4539407931
	 H          -1.2522549089       -2.8641421741        1.7791558347
	 H          -0.4293514526       -2.5080150390       -1.3983289241
	 C          -0.2141289582       -1.6620539528        0.4686669010
	 H           3.3826808648       -3.5221774811        1.1244975593
	 H           2.7564654379       -0.9647192614        3.1593824881
	 H           3.6498300614       -0.4046310715        0.0077146370
	 C           2.5529251075       -1.6447322780        1.2298058659
	            -0.0000007746        0.0000001820        0.0000084863
	             0.0000004927       -0.0000007805        0.0000014307
	            -0.0000040822        0.0000042626       -0.0000058622
	            -0.0021238067       -0.0009244491       -0.0007083913
	            -0.0000137378       -0.0000032823        0.0000010335
	            -0.0000047269        0.0000036580       -0.0000051643
	             0.0027054927        0.0011741261        0.0018499720
	             0.0000045340       -0.0000038364        0.0000053404
	            -0.0000068261       -0.0000054988        0.0000110286
	             0.0000805802        0.0000259232       -0.0034803163
	            -0.0000017749        0.0000006770       -0.0000009385
	            -0.0000066879       -0.0000033404       -0.0000041768
	             0.0000057206       -0.0000033626        0.0000047963
	            -0.0006344031       -0.0002642787        0.0023227614

	---Fragment 1 Intrafragment Coordinates---
	 - Coordinate -           - BOHR/RAD -       - ANG/DEG -
	 R(1,4)           =         2.055994	       1.087985
	 R(2,4)           =         2.055332	       1.087635
	 R(3,4)           =         2.057803	       1.088943
	 R(4,7)           =         2.869883	       1.518677
	 R(5,7)           =         2.060982	       1.090624
	 R(6,7)           =         2.059151	       1.089656
	 R(7,10)          =         2.883464	       1.525863
	 R(8,10)          =         2.059151	       1.089656
	 R(9,10)          =         2.060981	       1.090624
	 R(10,14)         =         2.869882	       1.518676
	 R(11,14)         =         2.055331	       1.087634
	 R(12,14)         =         2.055994	       1.087985
	 R(13,14)         =         2.057804	       1.088943
	 B(1,4,2)         =         1.886241	     108.073673
	 B(1,4,3)         =         1.881024	     107.774728
	 B(1,4,7)         =         1.924481	     110.264614
	 B(2,4,3)         =         1.880578	     107.749186
	 B(2,4,7)         =         1.949961	     111.724514
	 B(3,4,7)         =         1.939148	     111.104978
	 B(4,7,5)         =         1.921349	     110.085194
	 B(4,7,6)         =         1.897394	     108.712683
	 B(4,7,10)        =         1.960291	     112.316398
	 B(5,7,6)         =         1.859022	     106.514123
	 B(5,7,10)        =         1.907432	     109.287807
	 B(6,7,10)        =         1.915598	     109.755669
	 B(7,10,8)        =         1.915598	     109.755708
	 B(7,10,9)        =         1.907431	     109.287743
	 B(7,10,14)       =         1.960292	     112.316438
	 B(8,10,9)        =         1.859023	     106.514148
	 B(8,10,14)       =         1.897394	     108.712691
	 B(9,10,14)       =         1.921348	     110.085147
	 B(10,14,11)      =         1.949958	     111.724384
	 B(10,14,12)      =         1.924481	     110.264616
	 B(10,14,13)      =         1.939148	     111.104969
	 B(11,14,12)      =         1.886242	     108.073733
	 B(11,14,13)      =         1.880579	     107.749268
	 B(12,14,13)      =         1.881024	     107.774731
	 D(1,4,7,5)       =        -3.049666	    -174.733005
	 D(1,4,7,6)       =        -1.019473	     -58.411495
	 D(1,4,7,10)      =         1.103808	      63.243545
	 D(2,4,7,5)       =        -0.951684	     -54.527463
	 D(2,4,7,6)       =         1.078510	      61.794047
	 D(2,4,7,10)      =        -3.081395	    -176.550913
	 D(3,4,7,5)       =         1.149120	      65.839729
	 D(3,4,7,6)       =        -3.103872	    -177.838761
	 D(3,4,7,10)      =        -0.980591	     -56.183721
	 D(4,7,10,8)      =        -2.606727	    -149.354430
	 D(4,7,10,9)      =        -0.574002	     -32.887880
	 D(4,7,10,14)     =         1.563600	      89.587667
	 D(5,7,10,8)      =         1.538856	      88.169943
	 D(5,7,10,9)      =        -2.711605	    -155.363507
	 D(5,7,10,14)     =        -0.574003	     -32.887959
	 D(6,7,10,8)      =        -0.493869	     -28.296592
	 D(6,7,10,9)      =         1.538856	      88.169958
	 D(6,7,10,14)     =        -2.606728	    -149.354494
	 D(7,10,14,11)    =        -3.081395	    -176.550921
	 D(7,10,14,12)    =         1.103808	      63.243546
	 D(7,10,14,13)    =        -0.980591	     -56.183720
	 D(8,10,14,11)    =         1.078508	      61.793959
	 D(8,10,14,12)    =        -1.019474	     -58.411574
	 D(8,10,14,13)    =        -3.103873	    -177.838840
	 D(9,10,14,11)    =        -0.951685	     -54.527560
	 D(9,10,14,12)    =        -3.049668	    -174.733093
	 D(9,10,14,13)    =         1.149119	      65.839642

	Current energy   :      -158.1585410907

	Energy change for the previous step:
		Projected    :        -0.0000046513
		Actual       :        -0.0000002527

	Performing BFGS update.
	Previous computed or guess Hessian on step 1.
	Steps to be used in Hessian update: 7 6
	Adding user-defined constraint: Fragment 1; Coordinate 49:
		Value =     1.563600; Fixed value    =     1.570800
		Force =     0.004860; Force constant =     0.675000
	Removing off-diagonal coupling between coordinate 49 and others.
	Taking RFO optimization step.
	Going to follow RFO solution 1.
	Using RFO vector 1.

	Determining step-restricting scale parameter for RS-RFO.
	Maximum step size allowed    0.10000

	 Iter      |step|        alpha        rfo_root  
	------------------------------------------------
	    0   229.13254       1.00000           1
	    1   114.59126       1.99956           1
	    2    57.32063       3.99738           1
	    3    28.68532       7.98778           1
	    4    14.36769      15.94771           1
	    5     7.20892      31.78436           1
	    6     3.62962      63.12758           1
	    7     1.84015     124.51505           1
	    8     0.94576     242.26028           1
	    9     0.49927     458.89428           1
	   10     0.27741     825.84398           1
	   11     0.16920    1353.92650           1
	   12     0.12009    1907.58775           1
	   13     0.10288    2226.63964           1
	   14     0.10008    2288.94235           1
	   15     0.10000    2290.73483           1
	------------------------------------------------
	Norm of target step-size    0.10000
	Projected energy change by RFO approximation:        -0.0000177877

	Back-transformation to cartesian coordinates...
	Successfully converged to displaced geometry.

	--- Internal Coordinate Step in ANG or DEG, aJ/ANG or AJ/DEG ---
	 ---------------------------------------------------------------------------
	   Coordinate                Previous        Force       Change         New 
	   ----------                --------       ------       ------       ------
	    1 R(1,4)          =      1.087985     0.000047    -0.000255     1.087730
	    2 R(2,4)          =      1.087635     0.000007    -0.000002     1.087633
	    3 R(3,4)          =      1.088943     0.000017     0.000228     1.089171
	    4 R(4,7)          =      1.518677    -0.000003     0.000598     1.519275
	    5 R(5,7)          =      1.090624     0.000058    -0.000391     1.090233
	    6 R(6,7)          =      1.089656    -0.000027     0.000401     1.090057
	    7 R(7,10)         =      1.525863    -0.000036     0.001100     1.526963
	    8 R(8,10)         =      1.089656    -0.000028     0.000410     1.090066
	    9 R(9,10)         =      1.090624     0.000058    -0.000398     1.090226
	   10 R(10,14)        =      1.518676    -0.000000     0.000578     1.519254
	   11 R(11,14)        =      1.087634     0.000011    -0.000020     1.087615
	   12 R(12,14)        =      1.087985     0.000047    -0.000245     1.087740
	   13 R(13,14)        =      1.088943     0.000015     0.000256     1.089200
	   14 B(1,4,2)        =    108.073673    -0.000000     0.060122   108.133795
	   15 B(1,4,3)        =    107.774728     0.000000     0.013178   107.787906
	   16 B(1,4,7)        =    110.264614     0.000001    -0.213681   110.050933
	   17 B(2,4,3)        =    107.749186     0.000000     0.028023   107.777209
	   18 B(2,4,7)        =    111.724514     0.000000     0.131693   111.856207
	   19 B(3,4,7)        =    111.104978    -0.000001    -0.015973   111.089005
	   20 B(4,7,5)        =    110.085194     0.000007     0.668882   110.754077
	   21 B(4,7,6)        =    108.712683    -0.000006    -0.650342   108.062341
	   22 B(4,7,10)       =    112.316398    -0.000001    -0.133910   112.182488
	   23 B(5,7,6)        =    106.514123     0.000000     0.006066   106.520189
	   24 B(5,7,10)       =    109.287807    -0.000000     0.670139   109.957946
	   25 B(6,7,10)       =    109.755669     0.000000    -0.583233   109.172436
	   26 B(7,10,8)       =    109.755708     0.000000    -0.581887   109.173821
	   27 B(7,10,9)       =    109.287743     0.000000     0.670256   109.957999
	   28 B(7,10,14)      =    112.316438    -0.000001    -0.133650   112.182787
	   29 B(8,10,9)       =    106.514148     0.000000     0.005220   106.519367
	   30 B(8,10,14)      =    108.712691    -0.000006    -0.650361   108.062331
	   31 B(9,10,14)      =    110.085147     0.000007     0.668005   110.753152
	   32 B(10,14,11)     =    111.724384     0.000000     0.132913   111.857297
	   33 B(10,14,12)     =    110.264616     0.000001    -0.210737   110.053880
	   34 B(10,14,13)     =    111.104969    -0.000001    -0.012167   111.092802
	   35 B(11,14,12)     =    108.073733    -0.000000     0.058337   108.132070
	   36 B(11,14,13)     =    107.749268     0.000000     0.024908   107.774176
	   37 B(12,14,13)     =    107.774731     0.000000     0.009679   107.784410
	   38 D(1,4,7,5)      =   -174.733005     0.000000     0.869611  -173.863395
	   39 D(1,4,7,6)      =    -58.411495     0.000000     0.871096   -57.540399
	   40 D(1,4,7,10)     =     63.243545    -0.000001    -0.384982    62.858563
	   41 D(2,4,7,5)      =    -54.527463     0.000000     0.887545   -53.639919
	   42 D(2,4,7,6)      =     61.794047     0.000000     0.889030    62.683077
	   43 D(2,4,7,10)     =   -176.550913    -0.000001    -0.367048  -176.917961
	   44 D(3,4,7,5)      =     65.839729     0.000000     1.002085    66.841814
	   45 D(3,4,7,6)      =   -177.838761     0.000000     1.003570  -176.835191
	   46 D(3,4,7,10)     =    -56.183721    -0.000001    -0.252507   -56.436229
	   47 D(4,7,10,8)     =   -149.354430     0.000002    -0.753118  -150.107548
	   48 D(4,7,10,9)     =    -32.887880     0.000002    -0.697337   -33.585217
	   49 D(4,7,10,14)    =     89.587667     0.000004     0.550474    90.138142
	   50 D(5,7,10,8)     =     88.169943     0.000000    -2.001793    86.168150
	   51 D(5,7,10,9)     =   -155.363507     0.000000    -1.946012  -157.309519
	   52 D(5,7,10,14)    =    -32.887959     0.000002    -0.698201   -33.586160
	   53 D(6,7,10,8)     =    -28.296592    -0.000000    -2.057749   -30.354341
	   54 D(6,7,10,9)     =     88.169958     0.000000    -2.001968    86.167990
	   55 D(6,7,10,14)    =   -149.354494     0.000002    -0.754157  -150.108651
	   56 D(7,10,14,11)   =   -176.550921    -0.000001    -0.369454  -176.920375
	   57 D(7,10,14,12)   =     63.243546    -0.000001    -0.387931    62.855615
	   58 D(7,10,14,13)   =    -56.183720    -0.000001    -0.255419   -56.439138
	   59 D(8,10,14,11)   =     61.793959     0.000000     0.884803    62.678762
	   60 D(8,10,14,12)   =    -58.411574     0.000000     0.866327   -57.545248
	   61 D(8,10,14,13)   =   -177.838840     0.000000     0.998839  -176.840002
	   62 D(9,10,14,11)   =    -54.527560     0.000000     0.884831   -53.642729
	   63 D(9,10,14,12)   =   -174.733093     0.000000     0.866354  -173.866739
	   64 D(9,10,14,13)   =     65.839642     0.000000     0.998866    66.838507
	 ---------------------------------------------------------------------------
	Successfully symmetrized geometry.
	 Forces used to impose fixed constraints are not included.
	  Forces zeroed: 49 

  ==> Convergence Check <==

  Measures of convergence in internal coordinates in au.
  Criteria marked as inactive (o), active & met (*), and active & unmet ( ).
  ---------------------------------------------------------------------------------------------
   Step     Total Energy     Delta E     MAX Force     RMS Force      MAX Disp      RMS Disp   
  ---------------------------------------------------------------------------------------------
    Convergence Criteria    1.00e-06 *    3.00e-04 *             o    1.20e-03 *             o
  ---------------------------------------------------------------------------------------------
      8    -158.15854109   -2.53e-07 *    1.08e-04 *    3.69e-05 o    3.59e-02      1.25e-02 o  ~
  ---------------------------------------------------------------------------------------------


  **** Optimization is complete! (in 8 steps) ****

  ==> Optimization Summary <==

  Measures of convergence in internal coordinates in au.
  --------------------------------------------------------------------------------------------------------------- ~
   Step         Total Energy             Delta E       MAX Force       RMS Force        MAX Disp        RMS Disp  ~
  --------------------------------------------------------------------------------------------------------------- ~
      1    -158.154476976887   -158.154476976887      0.01293142      0.00544245      0.02522949      0.01250724  ~
      2    -158.157375582622     -0.002898605735      0.00445454      0.00209622      0.03215044      0.01251897  ~
      3    -158.158298229469     -0.000922646847      0.00131955      0.00055165      0.03371101      0.01252192  ~
      4    -158.158495576969     -0.000197347500      0.00067380      0.00016623      0.02677562      0.01249943  ~
      5    -158.158538941240     -0.000043364272      0.00024688      0.00006493      0.01858285      0.00936214  ~
      6    -158.158551515446     -0.000012574205      0.00046865      0.00010329      0.00535429      0.00268627  ~
      7    -158.158540837967      0.000010677478      0.00014307      0.00003882      0.00529504      0.00265908  ~
      8    -158.158541090703     -0.000000252736      0.00021064      0.00004532      0.03591449      0.01250115  ~
  --------------------------------------------------------------------------------------------------------------- ~

	Writing optimization data to binary file.
	Final energy is   -158.1585410907032
	Final (previous) structure:
	Cartesian Geometry (in Angstrom)
	    H    -1.1180845216   0.6572293496  -1.8712023869
	    H    -0.9539926628   2.2240329088  -1.0843768610
	    H     0.4725195304   1.2497566426  -1.4110388221
	    C    -0.5720899019   1.2058950829  -1.1066320197
	    H    -0.2516615763   1.1208864136   1.0202310029
	    H    -1.7803604596   0.4631585091   0.4883504239
	    C    -0.7208651942   0.5201494884   0.2402151218
	    H    -0.6626647572  -1.5156387607   0.9414887183
	    H    -0.2272030032  -1.3271843974  -0.7399637967
	    C    -0.1133121644  -0.8795210713   0.2480078424
	    H     1.7900376176  -1.8638560476   0.5950584795
	    H     1.4586586860  -0.5105074458   1.6718732059
	    H     1.9314068837  -0.2141215409   0.0040824101
	    C     1.3509497821  -0.8703548358   0.6507852352
	Saving final (previous) structure.
			--------------------------
			 OPTKING Finished Execution 
			--------------------------

    Final optimized geometry and variables:
    Molecular point group: c1
    Full point group: C1

    Geometry (in Angstrom), charge = 0, multiplicity = 1:

    H           -1.118084521569     0.657229349631    -1.871202386931
    H           -0.953992662843     2.224032908786    -1.084376860983
    H            0.472519530360     1.249756642617    -1.411038822128
    C           -0.572089901867     1.205895082900    -1.106632019660
    H           -0.251661576282     1.120886413569     1.020231002870
    H           -1.780360459571     0.463158509097     0.488350423895
    C           -0.720865194187     0.520149488445     0.240215121782
    H           -0.662664757156    -1.515638760688     0.941488718273
    H           -0.227203003204    -1.327184397441    -0.739963796746
    C           -0.113312164369    -0.879521071268     0.248007842433
    H            1.790037617600    -1.863856047625     0.595058479498
    H            1.458658686005    -0.510507445802     1.671873205936
    H            1.931406883718    -0.214121540902     0.004082410060
    C            1.350949782146    -0.870354835757     0.650785235241

	Cleaning optimization helper files.

*** Psi4 exiting successfully. Buy a developer a beer!
