
    -----------------------------------------------------------------------
          Psi4: An Open-Source Ab Initio Electronic Structure Package
                               Psi4 1.1 release

                         Git: Rev {HEAD} add49b9 


    R. M. Parrish, L. A. Burns, D. G. A. Smith, A. C. Simmonett,
    A. E. DePrince III, E. G. Hohenstein, U. Bozkaya, A. Yu. Sokolov,
    R. Di Remigio, R. M. Richard, J. F. Gonthier, A. M. James,
    H. R. McAlexander, A. Kumar, M. Saitow, X. Wang, B. P. Pritchard,
    P. Verma, H. F. Schaefer III, K. Patkowski, R. A. King, E. F. Valeev,
    F. A. Evangelista, J. M. Turney, T. D. Crawford, and C. D. Sherrill,
    J. Chem. Theory Comput. in press (2017).
    (doi: 10.1021/acs.jctc.7b00174)

    -----------------------------------------------------------------------


    Psi4 started on: Wednesday, 14 June 2017 02:24PM

    Process ID:  27296
    PSIDATADIR: /cbio/jclab/home/chayas/anaconda/envs/py35/share/psi4
    Memory:     500.0 MiB
    Threads:    1
    
  ==> Input File <==

--------------------------------------------------------------------------

memory 1000 mb

molecule butane {
  symmetry C1
  0 1 
  H      2.251   0.951   -6.958
  H      1.814   2.364   -7.889
  H      1.583   0.768   -8.561
  C      2.211   1.371   -7.941
  H      3.591   1.836   -9.521
  H      4.260   2.020   -7.917
  C      3.631   1.416   -8.537
  H      3.665   -0.647   -7.940
  H      4.104   -0.384   -9.610
  C      4.203   -0.012   -8.612
  H      6.088   -0.983   -8.270
  H      5.791   0.381   -7.220
  H      6.230   0.644   -8.890
  C      5.691   0.009   -8.218
  units Angstrom
}

dih_string = "14 10 7 4 220"
set optking fixed_dihedral = $dih_string

optimize('MP2/aug-cc-pvtz')
--------------------------------------------------------------------------

  Memory set to 953.674 MiB by Python driver.
gradient() will perform analytic gradient computation.

*** tstart() called on gpu-2-12.local
*** at Wed Jun 14 14:24:09 2017

    SCF Algorithm Type (re)set to DF.

*** tstart() called on gpu-2-12.local
*** at Wed Jun 14 14:24:09 2017

   => Loading Basis Set <=

    Name: AUG-CC-PVTZ
    Role: ORBITAL
    Keyword: BASIS
    atoms 1-3, 5-6, 8-9, 11-13 entry H          line    34 file /cbio/jclab/home/chayas/anaconda/envs/py35/share/psi4/basis/aug-cc-pvtz.gbs 
    atoms 4, 7, 10, 14         entry C          line   221 file /cbio/jclab/home/chayas/anaconda/envs/py35/share/psi4/basis/aug-cc-pvtz.gbs 


         ---------------------------------------------------------
                                   SCF
            by Justin Turney, Rob Parrish, and Andy Simmonett
                              RHF Reference
                        1 Threads,    953 MiB Core
         ---------------------------------------------------------

  ==> Geometry <==

    Molecular point group: c1
    Full point group: C1

    Geometry (in Angstrom), charge = 0, multiplicity = 1:

       Center              X                  Y                   Z               Mass       
    ------------   -----------------  -----------------  -----------------  -----------------
           H         -1.683642056639     0.255173528821     1.360427676228     1.007825032070
           H         -2.120642056639     1.668173528821     0.429427676228     1.007825032070
           H         -2.351642056639     0.072173528821    -0.242572323772     1.007825032070
           C         -1.723642056639     0.675173528821     0.377427676228    12.000000000000
           H         -0.343642056639     1.140173528821    -1.202572323772     1.007825032070
           H          0.325357943361     1.324173528821     0.401427676228     1.007825032070
           C         -0.303642056639     0.720173528821    -0.218572323772    12.000000000000
           H         -0.269642056639    -1.342826471179     0.378427676228     1.007825032070
           H          0.169357943361    -1.079826471179    -1.291572323772     1.007825032070
           C          0.268357943361    -0.707826471179    -0.293572323772    12.000000000000
           H          2.153357943361    -1.678826471179     0.048427676228     1.007825032070
           H          1.856357943361    -0.314826471179     1.098427676228     1.007825032070
           H          2.295357943361    -0.051826471179    -0.571572323772     1.007825032070
           C          1.756357943361    -0.686826471179     0.100427676228    12.000000000000

  Running in c1 symmetry.

  Rotational constants: A =      0.67217  B =      0.12767  C =      0.12283 [cm^-1]
  Rotational constants: A =  20151.16040  B =   3827.52857  C =   3682.22017 [MHz]
  Nuclear repulsion =  132.163001293024877

  Charge       = 0
  Multiplicity = 1
  Electrons    = 34
  Nalpha       = 17
  Nbeta        = 17

  ==> Algorithm <==

  SCF Algorithm Type is DF.
  DIIS enabled.
  MOM disabled.
  Fractional occupation disabled.
  Guess Type is SAD.
  Energy threshold   = 1.00e-10
  Density threshold  = 1.00e-10
  Integral threshold = 0.00e+00

  ==> Primary Basis <==

  Basis Set: AUG-CC-PVTZ
    Blend: AUG-CC-PVTZ
    Number of shells: 146
    Number of basis function: 414
    Number of Cartesian functions: 470
    Spherical Harmonics?: true
    Max angular momentum: 3

   => Loading Basis Set <=

    Name: (AUG-CC-PVTZ AUX)
    Role: JKFIT
    Keyword: DF_BASIS_SCF
    atoms 1-3, 5-6, 8-9, 11-13 entry H          line    69 file /cbio/jclab/home/chayas/anaconda/envs/py35/share/psi4/basis/aug-cc-pvtz-jkfit.gbs 
    atoms 4, 7, 10, 14         entry C          line   161 file /cbio/jclab/home/chayas/anaconda/envs/py35/share/psi4/basis/aug-cc-pvtz-jkfit.gbs 

  ==> Pre-Iterations <==

   -------------------------------------------------------
    Irrep   Nso     Nmo     Nalpha   Nbeta   Ndocc  Nsocc
   -------------------------------------------------------
     A        414     414       0       0       0       0
   -------------------------------------------------------
    Total     414     414      17      17      17       0
   -------------------------------------------------------

  ==> Integral Setup <==

  ==> DFJK: Density-Fitted J/K Matrices <==

    J tasked:                  Yes
    K tasked:                  Yes
    wK tasked:                  No
    OpenMP threads:              1
    Integrals threads:           1
    Memory (MB):               715
    Algorithm:                Core
    Integral Cache:           NONE
    Schwarz Cutoff:          1E-12
    Fitting Condition:       1E-12

   => Auxiliary Basis Set <=

  Basis Set: (AUG-CC-PVTZ AUX)
    Blend: AUG-CC-PVTZ-JKFIT
    Number of shells: 260
    Number of basis function: 876
    Number of Cartesian functions: 1074
    Spherical Harmonics?: true
    Max angular momentum: 4

  Minimum eigenvalue in the overlap matrix is 8.0649475041E-06.
  Using Symmetric Orthogonalization.

  SCF Guess: Superposition of Atomic Densities via on-the-fly atomic UHF.

  ==> Iterations <==

                           Total Energy        Delta E     RMS |[F,P]|

   @DF-RHF iter   0:  -159.10056976260779   -1.59101e+02   9.65690e-03 
   @DF-RHF iter   1:  -157.25944005281929    1.84113e+00   7.94089e-04 
   @DF-RHF iter   2:  -157.33936075567874   -7.99207e-02   2.24236e-04 DIIS
   @DF-RHF iter   3:  -157.34738706093918   -8.02631e-03   7.96652e-05 DIIS
   @DF-RHF iter   4:  -157.34818858536300   -8.01524e-04   1.94693e-05 DIIS
   @DF-RHF iter   5:  -157.34825368458516   -6.50992e-05   3.40354e-06 DIIS
   @DF-RHF iter   6:  -157.34825638842619   -2.70384e-06   6.09490e-07 DIIS
   @DF-RHF iter   7:  -157.34825644967367   -6.12475e-08   1.66854e-07 DIIS
   @DF-RHF iter   8:  -157.34825645339282   -3.71915e-09   3.10884e-08 DIIS
   @DF-RHF iter   9:  -157.34825645357728   -1.84457e-10   7.16158e-09 DIIS
   @DF-RHF iter  10:  -157.34825645358612   -8.83915e-12   1.51435e-09 DIIS
   @DF-RHF iter  11:  -157.34825645358742   -1.30740e-12   2.87114e-10 DIIS
   @DF-RHF iter  12:  -157.34825645358794   -5.11591e-13   8.62001e-11 DIIS

  ==> Post-Iterations <==

    Orbital Energies (a.u.)
    -----------------------

    Doubly Occupied:                                                      

       1A    -11.205781     2A    -11.205163     3A    -11.199459  
       4A    -11.199410     5A     -1.071041     6A     -0.980740  
       7A     -0.863146     8A     -0.794273     9A     -0.643272  
      10A     -0.593137    11A     -0.585822    12A     -0.559610  
      13A     -0.512901    14A     -0.509260    15A     -0.469431  
      16A     -0.468348    17A     -0.441592  

    Virtual:                                                              

      18A      0.032223    19A      0.037543    20A      0.039449  
      21A      0.039932    22A      0.056993    23A      0.060395  
      24A      0.061011    25A      0.061791    26A      0.067203  
      27A      0.083601    28A      0.118211    29A      0.118296  
      30A      0.123396    31A      0.126968    32A      0.131714  
      33A      0.135011    34A      0.141382    35A      0.142977  
      36A      0.146145    37A      0.151707    38A      0.158486  
      39A      0.169187    40A      0.169948    41A      0.202799  
      42A      0.206565    43A      0.213889    44A      0.232460  
      45A      0.239254    46A      0.239293    47A      0.268466  
      48A      0.280807    49A      0.282399    50A      0.297469  
      51A      0.300905    52A      0.303790    53A      0.306276  
      54A      0.328678    55A      0.330602    56A      0.335719  
      57A      0.346295    58A      0.355824    59A      0.358483  
      60A      0.361011    61A      0.364598    62A      0.375924  
      63A      0.378041    64A      0.379461    65A      0.388149  
      66A      0.390480    67A      0.394827    68A      0.401720  
      69A      0.417044    70A      0.417794    71A      0.427805  
      72A      0.431392    73A      0.444987    74A      0.448579  
      75A      0.449783    76A      0.455112    77A      0.460767  
      78A      0.473150    79A      0.476802    80A      0.482040  
      81A      0.483502    82A      0.496981    83A      0.503263  
      84A      0.507346    85A      0.515959    86A      0.524574  
      87A      0.527660    88A      0.538625    89A      0.540174  
      90A      0.554295    91A      0.557857    92A      0.564944  
      93A      0.574233    94A      0.577020    95A      0.580103  
      96A      0.584169    97A      0.593782    98A      0.607320  
      99A      0.609656   100A      0.628859   101A      0.647525  
     102A      0.647751   103A      0.667497   104A      0.683881  
     105A      0.685097   106A      0.698368   107A      0.763116  
     108A      0.783168   109A      0.808728   110A      0.816673  
     111A      0.827171   112A      0.833460   113A      0.840860  
     114A      0.851774   115A      0.853765   116A      0.860159  
     117A      0.861143   118A      0.866202   119A      0.880205  
     120A      0.882337   121A      0.897178   122A      0.898975  
     123A      0.904083   124A      0.917660   125A      0.922235  
     126A      0.931110   127A      0.946366   128A      0.956181  
     129A      0.958112   130A      0.963567   131A      0.969867  
     132A      0.980927   133A      0.981145   134A      0.989732  
     135A      0.995942   136A      1.006190   137A      1.018254  
     138A      1.031548   139A      1.038919   140A      1.046904  
     141A      1.072827   142A      1.077612   143A      1.090592  
     144A      1.100172   145A      1.109324   146A      1.115119  
     147A      1.126439   148A      1.144205   149A      1.151398  
     150A      1.158020   151A      1.161335   152A      1.168857  
     153A      1.171163   154A      1.191565   155A      1.198381  
     156A      1.207441   157A      1.231763   158A      1.233664  
     159A      1.256671   160A      1.260513   161A      1.269670  
     162A      1.277561   163A      1.282816   164A      1.295251  
     165A      1.302229   166A      1.326825   167A      1.333984  
     168A      1.340969   169A      1.364424   170A      1.366008  
     171A      1.372000   172A      1.383405   173A      1.394554  
     174A      1.428632   175A      1.437100   176A      1.449648  
     177A      1.450392   178A      1.476984   179A      1.493215  
     180A      1.502181   181A      1.514139   182A      1.531736  
     183A      1.552224   184A      1.557456   185A      1.580880  
     186A      1.593919   187A      1.612250   188A      1.613036  
     189A      1.631815   190A      1.660478   191A      1.670940  
     192A      1.674498   193A      1.675889   194A      1.691078  
     195A      1.691500   196A      1.696816   197A      1.709778  
     198A      1.717301   199A      1.726000   200A      1.737856  
     201A      1.743161   202A      1.754447   203A      1.767814  
     204A      1.769842   205A      1.783212   206A      1.803412  
     207A      1.819478   208A      1.833235   209A      1.839443  
     210A      1.846982   211A      1.870553   212A      1.871730  
     213A      1.900377   214A      1.912425   215A      1.919773  
     216A      1.943724   217A      1.951468   218A      1.969665  
     219A      1.983488   220A      1.995521   221A      2.008891  
     222A      2.016291   223A      2.032850   224A      2.043486  
     225A      2.059421   226A      2.067385   227A      2.071162  
     228A      2.088447   229A      2.108313   230A      2.120210  
     231A      2.145258   232A      2.181987   233A      2.227549  
     234A      2.246834   235A      2.249638   236A      2.254628  
     237A      2.257679   238A      2.273775   239A      2.298963  
     240A      2.305655   241A      2.325321   242A      2.332780  
     243A      2.357538   244A      2.363118   245A      2.372919  
     246A      2.405053   247A      2.429127   248A      2.452146  
     249A      2.460261   250A      2.490816   251A      2.510507  
     252A      2.536178   253A      2.573945   254A      2.592733  
     255A      2.599749   256A      2.655845   257A      2.843806  
     258A      2.861919   259A      2.997384   260A      3.002913  
     261A      3.231610   262A      3.274622   263A      3.278373  
     264A      3.331019   265A      3.339995   266A      3.432354  
     267A      3.446829   268A      3.459977   269A      3.482106  
     270A      3.522976   271A      3.530432   272A      3.553546  
     273A      3.564611   274A      3.581704   275A      3.618581  
     276A      3.629361   277A      3.645994   278A      3.647311  
     279A      3.657851   280A      3.693756   281A      3.703207  
     282A      3.703963   283A      3.730119   284A      3.734458  
     285A      3.754588   286A      3.771181   287A      3.775350  
     288A      3.787430   289A      3.834433   290A      3.834866  
     291A      3.843302   292A      3.858010   293A      3.861740  
     294A      3.900252   295A      3.916619   296A      3.933625  
     297A      3.958342   298A      3.968763   299A      3.978139  
     300A      4.005979   301A      4.009026   302A      4.013294  
     303A      4.031937   304A      4.059415   305A      4.064284  
     306A      4.081909   307A      4.096806   308A      4.105985  
     309A      4.123367   310A      4.155004   311A      4.165247  
     312A      4.197433   313A      4.221514   314A      4.243972  
     315A      4.277694   316A      4.279448   317A      4.306324  
     318A      4.306871   319A      4.320396   320A      4.321710  
     321A      4.349829   322A      4.387935   323A      4.388160  
     324A      4.422001   325A      4.422616   326A      4.462175  
     327A      4.514598   328A      4.558333   329A      4.567853  
     330A      4.613089   331A      4.623579   332A      4.662211  
     333A      4.682264   334A      4.697890   335A      4.700585  
     336A      4.727195   337A      4.757846   338A      4.769502  
     339A      4.777836   340A      4.809948   341A      4.838305  
     342A      4.862272   343A      4.872393   344A      4.889188  
     345A      4.894133   346A      4.925404   347A      4.939663  
     348A      4.967913   349A      4.971113   350A      5.008326  
     351A      5.022947   352A      5.085969   353A      5.094081  
     354A      5.098963   355A      5.139039   356A      5.165329  
     357A      5.167790   358A      5.190911   359A      5.204835  
     360A      5.217141   361A      5.248029   362A      5.266304  
     363A      5.291880   364A      5.303568   365A      5.326864  
     366A      5.366948   367A      5.377429   368A      5.392383  
     369A      5.403874   370A      5.452492   371A      5.473718  
     372A      5.487442   373A      5.519190   374A      5.527461  
     375A      5.558772   376A      5.618672   377A      5.619521  
     378A      5.635912   379A      5.645632   380A      5.693228  
     381A      5.694920   382A      5.771128   383A      5.788691  
     384A      5.849519   385A      5.862183   386A      5.880591  
     387A      5.919036   388A      5.934392   389A      5.994241  
     390A      6.002032   391A      6.078590   392A      6.136442  
     393A      6.167386   394A      6.229073   395A      6.240234  
     396A      6.275593   397A      6.296984   398A      6.297297  
     399A      6.350314   400A      6.365590   401A      6.384939  
     402A      6.485397   403A      6.541667   404A      6.630727  
     405A      6.750869   406A      6.773899   407A      6.837376  
     408A      6.842175   409A      6.895071   410A      7.002478  
     411A     18.127467   412A     18.437901   413A     18.904150  
     414A     19.664876  

    Final Occupation by Irrep:
              A 
    DOCC [    17 ]

  Energy converged.

  @DF-RHF Final Energy:  -157.34825645358794

   => Energetics <=

    Nuclear Repulsion Energy =            132.1630012930248768
    One-Electron Energy =                -472.4177425613372634
    Two-Electron Energy =                 182.9064848147244504
    DFT Exchange-Correlation Energy =       0.0000000000000000
    Empirical Dispersion Energy =           0.0000000000000000
    PCM Polarization Energy =               0.0000000000000000
    EFP Energy =                            0.0000000000000000
    Total Energy =                       -157.3482564535879362



Properties will be evaluated at   0.000000,   0.000000,   0.000000 Bohr

Properties computed using the SCF density matrix

  Nuclear Dipole Moment: (a.u.)
     X:     0.0287      Y:    -0.0077      Z:     0.3827

  Electronic Dipole Moment: (a.u.)
     X:    -0.0306      Y:     0.0075      Z:    -0.4106

  Dipole Moment: (a.u.)
     X:    -0.0020      Y:    -0.0002      Z:    -0.0279     Total:     0.0279

  Dipole Moment: (Debye)
     X:    -0.0050      Y:    -0.0006      Z:    -0.0708     Total:     0.0710


*** tstop() called on gpu-2-12.local at Wed Jun 14 14:25:39 2017
Module time:
	user time   =      89.17 seconds =       1.49 minutes
	system time =       0.57 seconds =       0.01 minutes
	total time  =         90 seconds =       1.50 minutes
Total time:
	user time   =      89.18 seconds =       1.49 minutes
	system time =       0.57 seconds =       0.01 minutes
	total time  =         90 seconds =       1.50 minutes

  //>>>>>>>>>>>>>>>>>>>>>>>>>>>>>>>>>>>//
  //               DFMP2               //
  //<<<<<<<<<<<<<<<<<<<<<<<<<<<<<<<<<<<//

   => Loading Basis Set <=

    Name: (AUG-CC-PVTZ AUX)
    Role: RIFIT
    Keyword: DF_BASIS_MP2
    atoms 1-3, 5-6, 8-9, 11-13 entry H          line    29 file /cbio/jclab/home/chayas/anaconda/envs/py35/share/psi4/basis/aug-cc-pvtz-ri.gbs 
    atoms 4, 7, 10, 14         entry C          line   147 file /cbio/jclab/home/chayas/anaconda/envs/py35/share/psi4/basis/aug-cc-pvtz-ri.gbs 

	 --------------------------------------------------------
	                          DF-MP2                         
	      2nd-Order Density-Fitted Moller-Plesset Theory     
	              RMP2 Wavefunction,   1 Threads             
	                                                         
	        Rob Parrish, Justin Turney, Andy Simmonett,      
	           Ed Hohenstein, and C. David Sherrill          
	 --------------------------------------------------------

   => Auxiliary Basis Set <=

  Basis Set: (AUG-CC-PVTZ AUX)
    Blend: AUG-CC-PVTZ-RI
    Number of shells: 252
    Number of basis function: 884
    Number of Cartesian functions: 1094
    Spherical Harmonics?: true
    Max angular momentum: 4

	 --------------------------------------------------------
	                 NBF =   414, NAUX =   884
	 --------------------------------------------------------
	   CLASS    FOCC     OCC    AOCC    AVIR     VIR    FVIR
	   PAIRS       0      17      17     397     397       0
	 --------------------------------------------------------


         ------------------------------------------------------------
                                     CPHF                           
                                  Rob Parrish                       
         ------------------------------------------------------------

  ==> Geometry <==

    Molecular point group: c1
    Full point group: C1

    Geometry (in Angstrom), charge = 0, multiplicity = 1:

       Center              X                  Y                   Z               Mass       
    ------------   -----------------  -----------------  -----------------  -----------------
           H         -1.683642056639     0.255173528821     1.360427676228     1.007825032070
           H         -2.120642056639     1.668173528821     0.429427676228     1.007825032070
           H         -2.351642056639     0.072173528821    -0.242572323772     1.007825032070
           C         -1.723642056639     0.675173528821     0.377427676228    12.000000000000
           H         -0.343642056639     1.140173528821    -1.202572323772     1.007825032070
           H          0.325357943361     1.324173528821     0.401427676228     1.007825032070
           C         -0.303642056639     0.720173528821    -0.218572323772    12.000000000000
           H         -0.269642056639    -1.342826471179     0.378427676228     1.007825032070
           H          0.169357943361    -1.079826471179    -1.291572323772     1.007825032070
           C          0.268357943361    -0.707826471179    -0.293572323772    12.000000000000
           H          2.153357943361    -1.678826471179     0.048427676228     1.007825032070
           H          1.856357943361    -0.314826471179     1.098427676228     1.007825032070
           H          2.295357943361    -0.051826471179    -0.571572323772     1.007825032070
           C          1.756357943361    -0.686826471179     0.100427676228    12.000000000000

  Nuclear repulsion =  132.163001293024877
  Reference energy  = -157.348256453587936

  ==> Basis Set <==

  Basis Set: AUG-CC-PVTZ
    Blend: AUG-CC-PVTZ
    Number of shells: 146
    Number of basis function: 414
    Number of Cartesian functions: 470
    Spherical Harmonics?: true
    Max angular momentum: 3

  ==> CGRSolver (by Rob Parrish) <==

   Number of roots    =         1
   Preconditioning    =    JACOBI
   Convergence cutoff =     1E-06
   Maximum iterations =       100

  ==> CPHFRHamiltonian (by Rob Parrish) <== 

  ==> DFJK: Density-Fitted J/K Matrices <==

    J tasked:                  Yes
    K tasked:                  Yes
    wK tasked:                  No
    OpenMP threads:              1
    Integrals threads:           1
    Memory (MB):               715
    Algorithm:                Core
    Integral Cache:           NONE
    Schwarz Cutoff:          1E-12
    Fitting Condition:       1E-12

   => Auxiliary Basis Set <=

  Basis Set: (AUG-CC-PVTZ AUX)
    Blend: AUG-CC-PVTZ-JKFIT
    Number of shells: 260
    Number of basis function: 876
    Number of Cartesian functions: 1074
    Spherical Harmonics?: true
    Max angular momentum: 4

  ==> CPHF Iterations <==

  => Iterations <=

             Iter  Converged  Remaining    Residual
  CGR           1          0          1   8.224E-02
  CGR           2          0          1   1.326E-02
  CGR           3          0          1   3.403E-03
  CGR           4          0          1   8.320E-04
  CGR           5          0          1   1.423E-04
  CGR           6          0          1   3.166E-05
  CGR           7          0          1   6.717E-06
  CGR           8          0          1   1.389E-06
  CGR           9          1          0   2.164E-07

    CGRSolver converged.

  ==> DFCorrGrad: Density-Fitted Correlated Gradients <==

    OpenMP threads:              1
    Integrals threads:           1
    Memory (MB):               715
    Schwarz Cutoff:          0E+00
    Fitting Condition:       1E-12

   => Auxiliary Basis Set <=

  Basis Set: (AUG-CC-PVTZ AUX)
    Blend: AUG-CC-PVTZ-JKFIT
    Number of shells: 260
    Number of basis function: 876
    Number of Cartesian functions: 1074
    Spherical Harmonics?: true
    Max angular momentum: 4

	-----------------------------------------------------------
	 ==================> DF-MP2 Energies <==================== 
	-----------------------------------------------------------
	 Reference Energy          =    -157.3482564535879362 [Eh]
	 Singles Energy            =      -0.0000000000000001 [Eh]
	 Same-Spin Energy          =      -0.1654920968487019 [Eh]
	 Opposite-Spin Energy      =      -0.6395104042488042 [Eh]
	 Correlation Energy        =      -0.8050025010975063 [Eh]
	 Total Energy              =    -158.1532589546854410 [Eh]
	-----------------------------------------------------------
	 ================> DF-SCS-MP2 Energies <================== 
	-----------------------------------------------------------
	 SCS Same-Spin Scale       =       0.3333333333333333 [-]
	 SCS Opposite-Spin Scale   =       1.2000000000000000 [-]
	 SCS Same-Spin Energy      =      -0.0551640322829006 [Eh]
	 SCS Opposite-Spin Energy  =      -0.7674124850985651 [Eh]
	 SCS Correlation Energy    =      -0.8225765173814658 [Eh]
	 SCS Total Energy          =    -158.1708329709693999 [Eh]
	-----------------------------------------------------------


  -Total Gradient:
     Atom            X                  Y                   Z
    ------   -----------------  -----------------  -----------------
       1        0.001240321627     0.004508006263    -0.011044015585
       2        0.008265400813    -0.009414529609    -0.002113549596
       3        0.009050992658     0.007086948120     0.005938191494
       4       -0.023482628573    -0.008967592115     0.011631479003
       5       -0.001678377235    -0.007798658487     0.009634540590
       6       -0.007120805064    -0.008508984424    -0.005882566688
       7        0.021605976937     0.026546624102    -0.008558869045
       8        0.006428961828     0.008948178386    -0.006516871422
       9        0.003103163423     0.007515345089     0.010317390825
      10       -0.022333135350    -0.026561835458    -0.007371518513
      11       -0.008711831894     0.010120975802    -0.000458960997
      12       -0.002677352807    -0.003961070046    -0.010957262617
      13       -0.007640177800    -0.006835572261     0.006224970579
      14        0.023949491436     0.007322164637     0.009157041973


*** tstop() called on gpu-2-12.local at Wed Jun 14 14:31:30 2017
Module time:
	user time   =     438.34 seconds =       7.31 minutes
	system time =       3.22 seconds =       0.05 minutes
	total time  =        441 seconds =       7.35 minutes
Total time:
	user time   =     438.35 seconds =       7.31 minutes
	system time =       3.22 seconds =       0.05 minutes
	total time  =        441 seconds =       7.35 minutes

			-----------------------------------------
			 OPTKING 2.0: for geometry optimizations 
			  - R.A. King,  Bethel University        
			-----------------------------------------

	Internal coordinates to be generated automatically.
	Detected frag 1 with atoms:  1 2 3 4 5 6 7 8 9 10 11 12 13 14
	---Fragment 1 Bond Connectivity---
	 1 : 4
	 2 : 4
	 3 : 4
	 4 : 1 2 3 7
	 5 : 7
	 6 : 7
	 7 : 4 5 6 10
	 8 : 10
	 9 : 10
	 10 : 7 8 9 14
	 11 : 14
	 12 : 14
	 13 : 14
	 14 : 10 11 12 13

	Assuming in current code that numbering for constraints corresponds to unified fragment.
	Fixed dihedral atom list: 
	    14    10     7     4
	---Fragment 1 Geometry and Gradient---
	 H          -3.1816223929        0.4822080858        2.5708357317
	 H          -4.0074327129        3.1523911116        0.8115007020
	 H          -4.4439594496        0.1363882035       -0.4583952593
	 C          -3.2572114382        1.2758930616        0.7132349430
	 H          -0.6493893748        2.1546157134       -2.2725323469
	 H           0.6148374081        2.5023253219        0.7585883702
	 C          -0.5738003295        1.3609307376       -0.4130418322
	 H          -0.5095496410       -2.5375742745        0.7151246692
	 H           0.3200401314       -2.0405763016       -2.4407179727
	 C           0.5071230185       -1.3375981801       -0.5547712921
	 H           4.0692567790       -3.1725222552        0.0915150453
	 H           3.5080081176       -0.5949358099        2.0757274849
	 H           4.3375978899       -0.0979378370       -1.0801151571
	 C           3.3190355043       -1.2979139313        0.1897808042
	             0.0012403216        0.0045080063       -0.0110440156
	             0.0082654008       -0.0094145296       -0.0021135496
	             0.0090509927        0.0070869481        0.0059381915
	            -0.0234826286       -0.0089675921        0.0116314790
	            -0.0016783772       -0.0077986585        0.0096345406
	            -0.0071208051       -0.0085089844       -0.0058825667
	             0.0216059769        0.0265466241       -0.0085588690
	             0.0064289618        0.0089481784       -0.0065168714
	             0.0031031634        0.0075153451        0.0103173908
	            -0.0223331354       -0.0265618355       -0.0073715185
	            -0.0087118319        0.0101209758       -0.0004589610
	            -0.0026773528       -0.0039610700       -0.0109572626
	            -0.0076401778       -0.0068355723        0.0062249706
	             0.0239494914        0.0073221646        0.0091570420

	Previous optimization step data not found.  Starting new optimization.

	---Fragment 1 Intrafragment Coordinates---
	 - Coordinate -           - BOHR/RAD -       - ANG/DEG -
	 R(1,4)           =         2.021467	       1.069714
	 R(2,4)           =         2.023298	       1.070683
	 R(3,4)           =         2.019792	       1.068828
	 R(4,7)           =         2.911430	       1.540663
	 R(5,7)           =         2.023204	       1.070633
	 R(6,7)           =         2.021969	       1.069980
	 R(7,10)          =         2.910419	       1.540128
	 R(8,10)          =         2.021436	       1.069698
	 R(9,10)          =         2.021379	       1.069668
	 R(10,14)         =         2.909087	       1.539422
	 R(11,14)         =         2.021545	       1.069756
	 R(12,14)         =         2.021555	       1.069761
	 R(13,14)         =         2.022387	       1.070201
	 B(1,4,2)         =         1.910679	     109.473820
	 B(1,4,3)         =         1.910825	     109.482195
	 B(1,4,7)         =         1.909740	     109.420035
	 B(2,4,3)         =         1.910860	     109.484200
	 B(2,4,7)         =         1.910758	     109.478342
	 B(3,4,7)         =         1.910939	     109.488714
	 B(4,7,5)         =         1.909820	     109.424648
	 B(4,7,6)         =         1.911500	     109.520899
	 B(4,7,10)        =         1.911412	     109.515818
	 B(5,7,6)         =         1.910363	     109.455726
	 B(5,7,10)        =         1.910120	     109.441836
	 B(6,7,10)        =         1.910583	     109.468349
	 B(7,10,8)        =         1.910303	     109.452301
	 B(7,10,9)        =         1.910824	     109.482155
	 B(7,10,14)       =         1.911213	     109.504437
	 B(8,10,9)        =         1.910417	     109.458846
	 B(8,10,14)       =         1.910766	     109.478806
	 B(9,10,14)       =         1.910276	     109.450772
	 B(10,14,11)      =         1.910943	     109.488965
	 B(10,14,12)      =         1.911204	     109.503926
	 B(10,14,13)      =         1.911557	     109.524173
	 B(11,14,12)      =         1.910410	     109.458432
	 B(11,14,13)      =         1.910054	     109.438058
	 B(12,14,13)      =         1.909629	     109.413709
	 D(1,4,7,5)       =         3.141211	     179.978160
	 D(1,4,7,6)       =        -1.047877	     -60.038941
	 D(1,4,7,10)      =         1.047466	      60.015379
	 D(2,4,7,5)       =        -1.047994	     -60.045627
	 D(2,4,7,6)       =         1.046103	      59.937272
	 D(2,4,7,10)      =         3.141446	     179.991592
	 D(3,4,7,5)       =         1.046942	      59.985356
	 D(3,4,7,6)       =         3.141039	     179.968254
	 D(3,4,7,10)      =        -1.046804	     -59.977426
	 D(4,7,10,8)      =        -0.349002	     -19.996342
	 D(4,7,10,9)      =         1.745043	      99.983613
	 D(4,7,10,14)     =        -2.443712	    -140.014384
	 D(5,7,10,8)      =        -2.442564	    -139.948602
	 D(5,7,10,9)      =        -0.348519	     -19.968647
	 D(5,7,10,14)     =         1.745911	     100.033356
	 D(6,7,10,8)      =         1.746902	     100.090109
	 D(6,7,10,9)      =        -2.442238	    -139.929937
	 D(6,7,10,14)     =        -0.347808	     -19.927933
	 D(7,10,14,11)    =         3.141408	     179.989448
	 D(7,10,14,12)    =         1.046747	      59.974196
	 D(7,10,14,13)    =        -1.047335	     -60.007849
	 D(8,10,14,11)    =         1.046982	      59.987626
	 D(8,10,14,12)    =        -1.047680	     -60.027626
	 D(8,10,14,13)    =         3.141424	     179.990329
	 D(9,10,14,11)    =        -1.047012	     -59.989345
	 D(9,10,14,12)    =         3.141512	     179.995403
	 D(9,10,14,13)    =         1.047431	      60.013359

	Current energy   :      -158.1532589547

	Generating empirical Hessian (Schlegel '84) for each fragment.
	Adding user-defined constraint: Fragment 1; Coordinate 49:
		Value =    -2.443712; Fixed value    =    -2.443461
		Force =     0.000126; Force constant =     0.500000
	Removing off-diagonal coupling between coordinate 49 and others.
	Taking RFO optimization step.
	Going to follow RFO solution 1.
	Using RFO vector 1.

	Determining step-restricting scale parameter for RS-RFO.
	Maximum step size allowed    0.10000

	 Iter      |step|        alpha        rfo_root  
	------------------------------------------------
	    0     0.21098       1.00000           1
	    1     0.16289       4.89763           1
	    2     0.12787      14.45792           1
	    3     0.10826      27.09356           1
	    4     0.10104      34.44849           1
	    5     0.10002      35.65116           1
	    6     0.10000      35.67477           1
	------------------------------------------------
	Norm of target step-size    0.10000
	Projected energy change by RFO approximation:        -0.0041165389

	Back-transformation to cartesian coordinates...
	Successfully converged to displaced geometry.

	--- Internal Coordinate Step in ANG or DEG, aJ/ANG or AJ/DEG ---
	 ---------------------------------------------------------------------------
	   Coordinate                Previous        Force       Change         New 
	   ----------                --------       ------       ------       ------
	    1 R(1,4)          =      1.069714     0.097813     0.011983     1.081697
	    2 R(2,4)          =      1.070683     0.098031     0.012038     1.082721
	    3 R(3,4)          =      1.068828     0.105133     0.012852     1.081680
	    4 R(4,7)          =      1.540663    -0.053100    -0.007818     1.532844
	    5 R(5,7)          =      1.070633     0.097642     0.011988     1.082622
	    6 R(6,7)          =      1.069980     0.102144     0.012521     1.082501
	    7 R(7,10)         =      1.540128    -0.002096    -0.000308     1.539819
	    8 R(8,10)         =      1.069698     0.104132     0.012756     1.082454
	    9 R(9,10)         =      1.069668     0.103206     0.012642     1.082310
	   10 R(10,14)        =      1.539422    -0.048291    -0.007092     1.532330
	   11 R(11,14)        =      1.069756     0.103776     0.012715     1.082470
	   12 R(12,14)        =      1.069761     0.097628     0.011962     1.081722
	   13 R(13,14)        =      1.070201     0.097321     0.011936     1.082137
	   14 B(1,4,2)        =    109.473820    -0.000232    -0.546958   108.926862
	   15 B(1,4,3)        =    109.482195    -0.000151    -0.415491   109.066704
	   16 B(1,4,7)        =    109.420035     0.000070     0.157176   109.577212
	   17 B(2,4,3)        =    109.484200    -0.000253    -0.589490   108.894711
	   18 B(2,4,7)        =    109.478342     0.000442     1.096308   110.574650
	   19 B(3,4,7)        =    109.488714     0.000123     0.283865   109.772580
	   20 B(4,7,5)        =    109.424648    -0.000203    -0.354011   109.070637
	   21 B(4,7,6)        =    109.520899    -0.000174    -0.363430   109.157469
	   22 B(4,7,10)       =    109.515818     0.000683     1.487382   111.003199
	   23 B(5,7,6)        =    109.455726    -0.000013    -0.341089   109.114637
	   24 B(5,7,10)       =    109.441836    -0.000126    -0.157736   109.284100
	   25 B(6,7,10)       =    109.468349    -0.000168    -0.284437   109.183912
	   26 B(7,10,8)       =    109.452301    -0.000170    -0.288121   109.164180
	   27 B(7,10,9)       =    109.482155    -0.000131    -0.173941   109.308215
	   28 B(7,10,14)      =    109.504437     0.000690     1.501778   111.006215
	   29 B(8,10,9)       =    109.458846    -0.000011    -0.339922   109.118924
	   30 B(8,10,14)      =    109.478806    -0.000172    -0.353581   109.125225
	   31 B(9,10,14)      =    109.450772    -0.000206    -0.359564   109.091208
	   32 B(10,14,11)     =    109.488965     0.000445     1.103302   110.592266
	   33 B(10,14,12)     =    109.503926     0.000057     0.126028   109.629953
	   34 B(10,14,13)     =    109.524173     0.000119     0.273563   109.797736
	   35 B(11,14,12)     =    109.458432    -0.000228    -0.538293   108.920139
	   36 B(11,14,13)     =    109.438058    -0.000251    -0.582747   108.855312
	   37 B(12,14,13)     =    109.413709    -0.000143    -0.398316   109.015393
	   38 D(1,4,7,5)      =    179.978160     0.000024     0.375300   180.353460
	   39 D(1,4,7,6)      =    -60.038941    -0.000032    -0.471356   -60.510297
	   40 D(1,4,7,10)     =     60.015379    -0.000008    -0.127814    59.887565
	   41 D(2,4,7,5)      =    -60.045627     0.000031     0.479336   -59.566291
	   42 D(2,4,7,6)      =     59.937272    -0.000026    -0.367320    59.569952
	   43 D(2,4,7,10)     =    179.991592    -0.000001    -0.023778   179.967814
	   44 D(3,4,7,5)      =     59.985356     0.000039     0.614029    60.599385
	   45 D(3,4,7,6)      =    179.968254    -0.000017    -0.232626   179.735628
	   46 D(3,4,7,10)     =    -59.977426     0.000007     0.110916   -59.866510
	   47 D(4,7,10,8)     =    -19.996342     0.000012     0.188631   -19.807711
	   48 D(4,7,10,9)     =     99.983613    -0.000033    -0.505088    99.478525
	   49 D(4,7,10,14)    =   -140.014384    -0.000013    -0.124574  -140.138957
	   50 D(5,7,10,8)     =   -139.948602    -0.000009    -0.198476  -140.147078
	   51 D(5,7,10,9)     =    -19.968647    -0.000054    -0.892195   -20.860842
	   52 D(5,7,10,14)    =    100.033356    -0.000034    -0.511681    99.521675
	   53 D(6,7,10,8)     =    100.090109     0.000036     0.484367   100.574475
	   54 D(6,7,10,9)     =   -139.929937    -0.000010    -0.209352  -140.139289
	   55 D(6,7,10,14)    =    -19.927933     0.000011     0.171162   -19.756771
	   56 D(7,10,14,11)   =    179.989448    -0.000001    -0.019276   179.970172
	   57 D(7,10,14,12)   =     59.974196    -0.000007    -0.120807    59.853389
	   58 D(7,10,14,13)   =    -60.007849     0.000008     0.122108   -59.885741
	   59 D(8,10,14,11)   =     59.987626    -0.000026    -0.371804    59.615822
	   60 D(8,10,14,12)   =    -60.027626    -0.000033    -0.473334   -60.500961
	   61 D(8,10,14,13)   =    179.990329    -0.000017    -0.230420   179.759910
	   62 D(9,10,14,11)   =    -59.989345     0.000030     0.470596   -59.518748
	   63 D(9,10,14,12)   =    179.995403     0.000024     0.369066   180.364469
	   64 D(9,10,14,13)   =     60.013359     0.000039     0.611980    60.625339
	 ---------------------------------------------------------------------------
	Successfully symmetrized geometry.
	 Forces used to impose fixed constraints are not included.
	  Forces zeroed: 49 

  ==> Convergence Check <==

  Measures of convergence in internal coordinates in au.
  Criteria marked as inactive (o), active & met (*), and active & unmet ( ).
  --------------------------------------------------------------------------------------------- ~
   Step     Total Energy     Delta E     MAX Force     RMS Force      MAX Disp      RMS Disp    ~
  --------------------------------------------------------------------------------------------- ~
    Convergence Criteria    1.00e-06 *    3.00e-04 *             o    1.20e-03 *             o  ~
  --------------------------------------------------------------------------------------------- ~
      1    -158.15325895   -1.58e+02      1.28e-02      5.52e-03 o    2.62e-02      1.25e-02 o  ~
  ---------------------------------------------------------------------------------------------

	Writing optimization data to binary file.
	Structure for next step:
	Cartesian Geometry (in Angstrom)
	    H    -1.7026754986   0.2561587364   1.3706058694
	    H    -2.1530896040   1.6721551938   0.4249837201
	    H    -2.3721740444   0.0594345828  -0.2472967794
	    C    -1.7350952699   0.6746918229   0.3736866627
	    H    -0.3607606288   1.1390068710  -1.2079960090
	    H     0.3077390943   1.3348373290   0.4125478452
	    C    -0.3196759354   0.7133007214  -0.2134326370
	    H    -0.2512506087  -1.3536002029   0.3868336106
	    H     0.1852914884  -1.0782676843  -1.2996300810
	    C     0.2847647838  -0.7008455836  -0.2901490114
	    H     2.1855331573  -1.6830574395   0.0398472010
	    H     1.8766623823  -0.3160002913   1.1061339025
	    H     2.3150517370  -0.0393468538  -0.5776768157
	    C     1.7676901535  -0.6860377984   0.0955299893
			--------------------------
			 OPTKING Finished Execution 
			--------------------------

    Structure for next step:
    Molecular point group: c1
    Full point group: C1

    Geometry (in Angstrom), charge = 0, multiplicity = 1:

    H           -1.702723185537     0.256080182580     1.370620197040
    H           -2.153137290978     1.672076639981     0.424998047707
    H           -2.372221731319     0.059356028983    -0.247282451817
    C           -1.735142956797     0.674613269061     0.373700990280
    H           -0.360808315731     1.138928317146    -1.207981681413
    H            0.307691407390     1.334758775212     0.412562172800
    C           -0.319723622300     0.713222167574    -0.213418309415
    H           -0.251298295602    -1.353678756730     0.386847938260
    H            0.185243801506    -1.078346238101    -1.299615753339
    C            0.284717096879    -0.700924137471    -0.290134683764
    H            2.185485470395    -1.683135993319     0.039861528633
    H            1.876614695363    -0.316078845158     1.106148230095
    H            2.315004050017    -0.039425407653    -0.577662488065
    C            1.767642466597    -0.686116352222     0.095544316885

gradient() will perform analytic gradient computation.

*** tstart() called on gpu-2-12.local
*** at Wed Jun 14 14:31:31 2017

    SCF Algorithm Type (re)set to DF.

*** tstart() called on gpu-2-12.local
*** at Wed Jun 14 14:31:31 2017

   => Loading Basis Set <=

    Name: AUG-CC-PVTZ
    Role: ORBITAL
    Keyword: BASIS
    atoms 1-3, 5-6, 8-9, 11-13 entry H          line    34 file /cbio/jclab/home/chayas/anaconda/envs/py35/share/psi4/basis/aug-cc-pvtz.gbs 
    atoms 4, 7, 10, 14         entry C          line   221 file /cbio/jclab/home/chayas/anaconda/envs/py35/share/psi4/basis/aug-cc-pvtz.gbs 


         ---------------------------------------------------------
                                   SCF
            by Justin Turney, Rob Parrish, and Andy Simmonett
                              RHF Reference
                        1 Threads,    953 MiB Core
         ---------------------------------------------------------

  ==> Geometry <==

    Molecular point group: c1
    Full point group: C1

    Geometry (in Angstrom), charge = 0, multiplicity = 1:

       Center              X                  Y                   Z               Mass       
    ------------   -----------------  -----------------  -----------------  -----------------
           H         -1.702723185537     0.256080182580     1.370620197040     1.007825032070
           H         -2.153137290978     1.672076639981     0.424998047707     1.007825032070
           H         -2.372221731319     0.059356028983    -0.247282451817     1.007825032070
           C         -1.735142956797     0.674613269061     0.373700990280    12.000000000000
           H         -0.360808315731     1.138928317146    -1.207981681413     1.007825032070
           H          0.307691407390     1.334758775212     0.412562172800     1.007825032070
           C         -0.319723622300     0.713222167574    -0.213418309415    12.000000000000
           H         -0.251298295602    -1.353678756730     0.386847938260     1.007825032070
           H          0.185243801506    -1.078346238101    -1.299615753339     1.007825032070
           C          0.284717096879    -0.700924137471    -0.290134683764    12.000000000000
           H          2.185485470395    -1.683135993319     0.039861528633     1.007825032070
           H          1.876614695363    -0.316078845158     1.106148230095     1.007825032070
           H          2.315004050017    -0.039425407653    -0.577662488065     1.007825032070
           C          1.767642466597    -0.686116352222     0.095544316885    12.000000000000

  Running in c1 symmetry.

  Rotational constants: A =      0.67877  B =      0.12590  C =      0.12139 [cm^-1]
  Rotational constants: A =  20349.05912  B =   3774.47349  C =   3639.25260 [MHz]
  Nuclear repulsion =  131.564369428932253

  Charge       = 0
  Multiplicity = 1
  Electrons    = 34
  Nalpha       = 17
  Nbeta        = 17

  ==> Algorithm <==

  SCF Algorithm Type is DF.
  DIIS enabled.
  MOM disabled.
  Fractional occupation disabled.
  Guess Type is READ.
  Energy threshold   = 1.00e-10
  Density threshold  = 1.00e-10
  Integral threshold = 0.00e+00

  ==> Primary Basis <==

  Basis Set: AUG-CC-PVTZ
    Blend: AUG-CC-PVTZ
    Number of shells: 146
    Number of basis function: 414
    Number of Cartesian functions: 470
    Spherical Harmonics?: true
    Max angular momentum: 3

   => Loading Basis Set <=

    Name: (AUG-CC-PVTZ AUX)
    Role: JKFIT
    Keyword: DF_BASIS_SCF
    atoms 1-3, 5-6, 8-9, 11-13 entry H          line    69 file /cbio/jclab/home/chayas/anaconda/envs/py35/share/psi4/basis/aug-cc-pvtz-jkfit.gbs 
    atoms 4, 7, 10, 14         entry C          line   161 file /cbio/jclab/home/chayas/anaconda/envs/py35/share/psi4/basis/aug-cc-pvtz-jkfit.gbs 

  Reading orbitals from file 180, no projection.

  ==> Pre-Iterations <==

   -------------------------------------------------------
    Irrep   Nso     Nmo     Nalpha   Nbeta   Ndocc  Nsocc
   -------------------------------------------------------
     A        414     414       0       0       0       0
   -------------------------------------------------------
    Total     414     414      17      17      17       0
   -------------------------------------------------------

  ==> Integral Setup <==

  ==> DFJK: Density-Fitted J/K Matrices <==

    J tasked:                  Yes
    K tasked:                  Yes
    wK tasked:                  No
    OpenMP threads:              1
    Integrals threads:           1
    Memory (MB):               715
    Algorithm:                Core
    Integral Cache:           NONE
    Schwarz Cutoff:          1E-12
    Fitting Condition:       1E-12

   => Auxiliary Basis Set <=

  Basis Set: (AUG-CC-PVTZ AUX)
    Blend: AUG-CC-PVTZ-JKFIT
    Number of shells: 260
    Number of basis function: 876
    Number of Cartesian functions: 1074
    Spherical Harmonics?: true
    Max angular momentum: 4

  Minimum eigenvalue in the overlap matrix is 8.4518158102E-06.
  Using Symmetric Orthogonalization.

  SCF Guess: Orbitals guess was supplied from a previous computation.

  ==> Iterations <==

                           Total Energy        Delta E     RMS |[F,P]|

   @DF-RHF iter   0:  -157.26938825988449   -1.57269e+02   1.29205e-04 
   @DF-RHF iter   1:  -157.35061203458744   -8.12238e-02   5.46555e-05 
   @DF-RHF iter   2:  -157.35091372355024   -3.01689e-04   2.83361e-05 DIIS
   @DF-RHF iter   3:  -157.35097918005971   -6.54565e-05   3.22686e-06 DIIS
   @DF-RHF iter   4:  -157.35098114861745   -1.96856e-06   8.50297e-07 DIIS
   @DF-RHF iter   5:  -157.35098126504980   -1.16432e-07   2.95975e-07 DIIS
   @DF-RHF iter   6:  -157.35098127862318   -1.35734e-08   5.16193e-08 DIIS
   @DF-RHF iter   7:  -157.35098127923052   -6.07344e-10   9.25111e-09 DIIS
   @DF-RHF iter   8:  -157.35098127924434   -1.38130e-11   2.26588e-09 DIIS
   @DF-RHF iter   9:  -157.35098127924701   -2.67164e-12   5.03909e-10 DIIS
   @DF-RHF iter  10:  -157.35098127924766   -6.53699e-13   9.62194e-11 DIIS

  ==> Post-Iterations <==

    Orbital Energies (a.u.)
    -----------------------

    Doubly Occupied:                                                      

       1A    -11.209819     2A    -11.209235     3A    -11.204416  
       4A    -11.204395     5A     -1.069871     6A     -0.980088  
       7A     -0.860355     8A     -0.789044     9A     -0.640293  
      10A     -0.591547    11A     -0.583114    12A     -0.558768  
      13A     -0.510486    14A     -0.505800    15A     -0.465601  
      16A     -0.464071    17A     -0.448261  

    Virtual:                                                              

      18A      0.032227    19A      0.037450    20A      0.039471  
      21A      0.039938    22A      0.056895    23A      0.060321  
      24A      0.060952    25A      0.061962    26A      0.067378  
      27A      0.083357    28A      0.118046    29A      0.118140  
      30A      0.123415    31A      0.126662    32A      0.131774  
      33A      0.134949    34A      0.141494    35A      0.142851  
      36A      0.146225    37A      0.151741    38A      0.158367  
      39A      0.169408    40A      0.169916    41A      0.202637  
      42A      0.206569    43A      0.213703    44A      0.231882  
      45A      0.237783    46A      0.238039    47A      0.267730  
      48A      0.278866    49A      0.281418    50A      0.297374  
      51A      0.298598    52A      0.303054    53A      0.306144  
      54A      0.327894    55A      0.330268    56A      0.335339  
      57A      0.345988    58A      0.355583    59A      0.357481  
      60A      0.360484    61A      0.364356    62A      0.374621  
      63A      0.376620    64A      0.378337    65A      0.386850  
      66A      0.390144    67A      0.394102    68A      0.400677  
      69A      0.415321    70A      0.416648    71A      0.426134  
      72A      0.430141    73A      0.443197    74A      0.446048  
      75A      0.448170    76A      0.453468    77A      0.457814  
      78A      0.471960    79A      0.474621    80A      0.479044  
      81A      0.480989    82A      0.495579    83A      0.501964  
      84A      0.506192    85A      0.515892    86A      0.523352  
      87A      0.527269    88A      0.537728    89A      0.538990  
      90A      0.553970    91A      0.559251    92A      0.562919  
      93A      0.573256    94A      0.576457    95A      0.577223  
      96A      0.583095    97A      0.593684    98A      0.605537  
      99A      0.607863   100A      0.627717   101A      0.644620  
     102A      0.647530   103A      0.666343   104A      0.682100  
     105A      0.683536   106A      0.698102   107A      0.763112  
     108A      0.780936   109A      0.808437   110A      0.815963  
     111A      0.825343   112A      0.833862   113A      0.839592  
     114A      0.850733   115A      0.852307   116A      0.858571  
     117A      0.859501   118A      0.863937   119A      0.878736  
     120A      0.879089   121A      0.894039   122A      0.896714  
     123A      0.901965   124A      0.915634   125A      0.920793  
     126A      0.928259   127A      0.944732   128A      0.952994  
     129A      0.956437   130A      0.962499   131A      0.967356  
     132A      0.978928   133A      0.980576   134A      0.987936  
     135A      0.995007   136A      1.005191   137A      1.013350  
     138A      1.030576   139A      1.036328   140A      1.045299  
     141A      1.072256   142A      1.076259   143A      1.086271  
     144A      1.100563   145A      1.105892   146A      1.112203  
     147A      1.122614   148A      1.142024   149A      1.147057  
     150A      1.153401   151A      1.157238   152A      1.165073  
     153A      1.165902   154A      1.188578   155A      1.194298  
     156A      1.204780   157A      1.227146   158A      1.231611  
     159A      1.253084   160A      1.253193   161A      1.266205  
     162A      1.271058   163A      1.279883   164A      1.290827  
     165A      1.297891   166A      1.320856   167A      1.330035  
     168A      1.333623   169A      1.359039   170A      1.359636  
     171A      1.365065   172A      1.377432   173A      1.388810  
     174A      1.426432   175A      1.431226   176A      1.444495  
     177A      1.445694   178A      1.472763   179A      1.490004  
     180A      1.499921   181A      1.511452   182A      1.530370  
     183A      1.552284   184A      1.558534   185A      1.575730  
     186A      1.590416   187A      1.606272   188A      1.609909  
     189A      1.629744   190A      1.656124   191A      1.665289  
     192A      1.669227   193A      1.671550   194A      1.686842  
     195A      1.687485   196A      1.692048   197A      1.703518  
     198A      1.712810   199A      1.722717   200A      1.732505  
     201A      1.741901   202A      1.752555   203A      1.764156  
     204A      1.767961   205A      1.779638   206A      1.800363  
     207A      1.812731   208A      1.828921   209A      1.835779  
     210A      1.846551   211A      1.862961   212A      1.864754  
     213A      1.893725   214A      1.908332   215A      1.917436  
     216A      1.935565   217A      1.946697   218A      1.960796  
     219A      1.975778   220A      1.988358   221A      2.001901  
     222A      2.005957   223A      2.029045   224A      2.034800  
     225A      2.055860   226A      2.058463   227A      2.062607  
     228A      2.083485   229A      2.103567   230A      2.111397  
     231A      2.140930   232A      2.177921   233A      2.216341  
     234A      2.238427   235A      2.241643   236A      2.247945  
     237A      2.251552   238A      2.269391   239A      2.288214  
     240A      2.297485   241A      2.314790   242A      2.321947  
     243A      2.350124   244A      2.355477   245A      2.362929  
     246A      2.406835   247A      2.425951   248A      2.448802  
     249A      2.454044   250A      2.490525   251A      2.506791  
     252A      2.532782   253A      2.572764   254A      2.586344  
     255A      2.598425   256A      2.646202   257A      2.851873  
     258A      2.864536   259A      3.009637   260A      3.014532  
     261A      3.224623   262A      3.283990   263A      3.284275  
     264A      3.330870   265A      3.346626   266A      3.434494  
     267A      3.449032   268A      3.457827   269A      3.482195  
     270A      3.513301   271A      3.531749   272A      3.558757  
     273A      3.560175   274A      3.579597   275A      3.614895  
     276A      3.624028   277A      3.641642   278A      3.646532  
     279A      3.658406   280A      3.688061   281A      3.702951  
     282A      3.708093   283A      3.721293   284A      3.733907  
     285A      3.752011   286A      3.771227   287A      3.774383  
     288A      3.786994   289A      3.830494   290A      3.830654  
     291A      3.838569   292A      3.856509   293A      3.857874  
     294A      3.894140   295A      3.911127   296A      3.927415  
     297A      3.953533   298A      3.958375   299A      3.972443  
     300A      3.996327   301A      3.999290   302A      4.007259  
     303A      4.017350   304A      4.044611   305A      4.053866  
     306A      4.067691   307A      4.087319   308A      4.103809  
     309A      4.115075   310A      4.142478   311A      4.159647  
     312A      4.190336   313A      4.209076   314A      4.232794  
     315A      4.266817   316A      4.267765   317A      4.288509  
     318A      4.298605   319A      4.301212   320A      4.315868  
     321A      4.332858   322A      4.369771   323A      4.374607  
     324A      4.405005   325A      4.415457   326A      4.449136  
     327A      4.498744   328A      4.534371   329A      4.551764  
     330A      4.600873   331A      4.607882   332A      4.640503  
     333A      4.659745   334A      4.675078   335A      4.680471  
     336A      4.705344   337A      4.737159   338A      4.754762  
     339A      4.766024   340A      4.795003   341A      4.823318  
     342A      4.847199   343A      4.857199   344A      4.875329  
     345A      4.876466   346A      4.908050   347A      4.919055  
     348A      4.952912   349A      4.953300   350A      4.986104  
     351A      5.010574   352A      5.057039   353A      5.068631  
     354A      5.081553   355A      5.118312   356A      5.145937  
     357A      5.146404   358A      5.168077   359A      5.183065  
     360A      5.195132   361A      5.227051   362A      5.242189  
     363A      5.275602   364A      5.280580   365A      5.300016  
     366A      5.341550   367A      5.344209   368A      5.373532  
     369A      5.381090   370A      5.418563   371A      5.458509  
     372A      5.467090   373A      5.497589   374A      5.500707  
     375A      5.520860   376A      5.584667   377A      5.585344  
     378A      5.615557   379A      5.616831   380A      5.661032  
     381A      5.681571   382A      5.747918   383A      5.753283  
     384A      5.808169   385A      5.809520   386A      5.860613  
     387A      5.877144   388A      5.911352   389A      5.957660  
     390A      5.969051   391A      6.051277   392A      6.095722  
     393A      6.110759   394A      6.188830   395A      6.209227  
     396A      6.231679   397A      6.258022   398A      6.262183  
     399A      6.308143   400A      6.315207   401A      6.330088  
     402A      6.468772   403A      6.534043   404A      6.611896  
     405A      6.738912   406A      6.766316   407A      6.835347  
     408A      6.836479   409A      6.891457   410A      6.998892  
     411A     17.939996   412A     18.210741   413A     18.790740  
     414A     19.529177  

    Final Occupation by Irrep:
              A 
    DOCC [    17 ]

  Energy converged.

  @DF-RHF Final Energy:  -157.35098127924766

   => Energetics <=

    Nuclear Repulsion Energy =            131.5643694289322525
    One-Electron Energy =                -471.2403707790695080
    Two-Electron Energy =                 182.3250200708895932
    DFT Exchange-Correlation Energy =       0.0000000000000000
    Empirical Dispersion Energy =           0.0000000000000000
    PCM Polarization Energy =               0.0000000000000000
    EFP Energy =                            0.0000000000000000
    Total Energy =                       -157.3509812792476623



Properties will be evaluated at   0.000000,   0.000000,   0.000000 Bohr

Properties computed using the SCF density matrix

  Nuclear Dipole Moment: (a.u.)
     X:     0.0280      Y:    -0.0089      Z:     0.3830

  Electronic Dipole Moment: (a.u.)
     X:    -0.0297      Y:     0.0092      Z:    -0.4081

  Dipole Moment: (a.u.)
     X:    -0.0018      Y:     0.0004      Z:    -0.0251     Total:     0.0252

  Dipole Moment: (Debye)
     X:    -0.0045      Y:     0.0009      Z:    -0.0638     Total:     0.0640


*** tstop() called on gpu-2-12.local at Wed Jun 14 14:32:50 2017
Module time:
	user time   =      78.95 seconds =       1.32 minutes
	system time =       0.41 seconds =       0.01 minutes
	total time  =         79 seconds =       1.32 minutes
Total time:
	user time   =     517.37 seconds =       8.62 minutes
	system time =       3.72 seconds =       0.06 minutes
	total time  =        521 seconds =       8.68 minutes

  //>>>>>>>>>>>>>>>>>>>>>>>>>>>>>>>>>>>//
  //               DFMP2               //
  //<<<<<<<<<<<<<<<<<<<<<<<<<<<<<<<<<<<//

   => Loading Basis Set <=

    Name: (AUG-CC-PVTZ AUX)
    Role: RIFIT
    Keyword: DF_BASIS_MP2
    atoms 1-3, 5-6, 8-9, 11-13 entry H          line    29 file /cbio/jclab/home/chayas/anaconda/envs/py35/share/psi4/basis/aug-cc-pvtz-ri.gbs 
    atoms 4, 7, 10, 14         entry C          line   147 file /cbio/jclab/home/chayas/anaconda/envs/py35/share/psi4/basis/aug-cc-pvtz-ri.gbs 

	 --------------------------------------------------------
	                          DF-MP2                         
	      2nd-Order Density-Fitted Moller-Plesset Theory     
	              RMP2 Wavefunction,   1 Threads             
	                                                         
	        Rob Parrish, Justin Turney, Andy Simmonett,      
	           Ed Hohenstein, and C. David Sherrill          
	 --------------------------------------------------------

   => Auxiliary Basis Set <=

  Basis Set: (AUG-CC-PVTZ AUX)
    Blend: AUG-CC-PVTZ-RI
    Number of shells: 252
    Number of basis function: 884
    Number of Cartesian functions: 1094
    Spherical Harmonics?: true
    Max angular momentum: 4

	 --------------------------------------------------------
	                 NBF =   414, NAUX =   884
	 --------------------------------------------------------
	   CLASS    FOCC     OCC    AOCC    AVIR     VIR    FVIR
	   PAIRS       0      17      17     397     397       0
	 --------------------------------------------------------


         ------------------------------------------------------------
                                     CPHF                           
                                  Rob Parrish                       
         ------------------------------------------------------------

  ==> Geometry <==

    Molecular point group: c1
    Full point group: C1

    Geometry (in Angstrom), charge = 0, multiplicity = 1:

       Center              X                  Y                   Z               Mass       
    ------------   -----------------  -----------------  -----------------  -----------------
           H         -1.702723185537     0.256080182580     1.370620197040     1.007825032070
           H         -2.153137290978     1.672076639981     0.424998047707     1.007825032070
           H         -2.372221731319     0.059356028983    -0.247282451817     1.007825032070
           C         -1.735142956797     0.674613269061     0.373700990280    12.000000000000
           H         -0.360808315731     1.138928317146    -1.207981681413     1.007825032070
           H          0.307691407390     1.334758775212     0.412562172800     1.007825032070
           C         -0.319723622300     0.713222167574    -0.213418309415    12.000000000000
           H         -0.251298295602    -1.353678756730     0.386847938260     1.007825032070
           H          0.185243801506    -1.078346238101    -1.299615753339     1.007825032070
           C          0.284717096879    -0.700924137471    -0.290134683764    12.000000000000
           H          2.185485470395    -1.683135993319     0.039861528633     1.007825032070
           H          1.876614695363    -0.316078845158     1.106148230095     1.007825032070
           H          2.315004050017    -0.039425407653    -0.577662488065     1.007825032070
           C          1.767642466597    -0.686116352222     0.095544316885    12.000000000000

  Nuclear repulsion =  131.564369428932253
  Reference energy  = -157.350981279247662

  ==> Basis Set <==

  Basis Set: AUG-CC-PVTZ
    Blend: AUG-CC-PVTZ
    Number of shells: 146
    Number of basis function: 414
    Number of Cartesian functions: 470
    Spherical Harmonics?: true
    Max angular momentum: 3

  ==> CGRSolver (by Rob Parrish) <==

   Number of roots    =         1
   Preconditioning    =    JACOBI
   Convergence cutoff =     1E-06
   Maximum iterations =       100

  ==> CPHFRHamiltonian (by Rob Parrish) <== 

  ==> DFJK: Density-Fitted J/K Matrices <==

    J tasked:                  Yes
    K tasked:                  Yes
    wK tasked:                  No
    OpenMP threads:              1
    Integrals threads:           1
    Memory (MB):               715
    Algorithm:                Core
    Integral Cache:           NONE
    Schwarz Cutoff:          1E-12
    Fitting Condition:       1E-12

   => Auxiliary Basis Set <=

  Basis Set: (AUG-CC-PVTZ AUX)
    Blend: AUG-CC-PVTZ-JKFIT
    Number of shells: 260
    Number of basis function: 876
    Number of Cartesian functions: 1074
    Spherical Harmonics?: true
    Max angular momentum: 4

  ==> CPHF Iterations <==

  => Iterations <=

             Iter  Converged  Remaining    Residual
  CGR           1          0          1   8.353E-02
  CGR           2          0          1   1.341E-02
  CGR           3          0          1   3.447E-03
  CGR           4          0          1   8.375E-04
  CGR           5          0          1   1.434E-04
  CGR           6          0          1   3.186E-05
  CGR           7          0          1   6.566E-06
  CGR           8          0          1   1.345E-06
  CGR           9          1          0   2.070E-07

    CGRSolver converged.

  ==> DFCorrGrad: Density-Fitted Correlated Gradients <==

    OpenMP threads:              1
    Integrals threads:           1
    Memory (MB):               715
    Schwarz Cutoff:          0E+00
    Fitting Condition:       1E-12

   => Auxiliary Basis Set <=

  Basis Set: (AUG-CC-PVTZ AUX)
    Blend: AUG-CC-PVTZ-JKFIT
    Number of shells: 260
    Number of basis function: 876
    Number of Cartesian functions: 1074
    Spherical Harmonics?: true
    Max angular momentum: 4

	-----------------------------------------------------------
	 ==================> DF-MP2 Energies <==================== 
	-----------------------------------------------------------
	 Reference Energy          =    -157.3509812792476623 [Eh]
	 Singles Energy            =      -0.0000000000000003 [Eh]
	 Same-Spin Energy          =      -0.1653510349758332 [Eh]
	 Opposite-Spin Energy      =      -0.6398854487367158 [Eh]
	 Correlation Energy        =      -0.8052364837125493 [Eh]
	 Total Energy              =    -158.1562177629602104 [Eh]
	-----------------------------------------------------------
	 ================> DF-SCS-MP2 Energies <================== 
	-----------------------------------------------------------
	 SCS Same-Spin Scale       =       0.3333333333333333 [-]
	 SCS Opposite-Spin Scale   =       1.2000000000000000 [-]
	 SCS Same-Spin Energy      =      -0.0551170116586111 [Eh]
	 SCS Opposite-Spin Energy  =      -0.7678625384840589 [Eh]
	 SCS Correlation Energy    =      -0.8229795501426703 [Eh]
	 SCS Total Energy          =    -158.1739608293903245 [Eh]
	-----------------------------------------------------------


  -Total Gradient:
     Atom            X                  Y                   Z
    ------   -----------------  -----------------  -----------------
       1        0.001529738952     0.001554076311    -0.003550895996
       2        0.003268327430    -0.002172291188    -0.000863329324
       3        0.003677329944     0.002388916867     0.000909632833
       4       -0.012166133924    -0.004416523233     0.006725027407
       5       -0.002553831852    -0.004606463200     0.002192750122
       6       -0.002585178825    -0.003968617121    -0.000767685254
       7        0.011446216138     0.014901907576    -0.004694325386
       8        0.002520034383     0.004055458849    -0.000927369229
       9        0.002863722268     0.004543573753     0.002225230645
      10       -0.011875027467    -0.014785208035    -0.004068339729
      11       -0.003389318425     0.002380858281    -0.000301307467
      12       -0.001929290962    -0.001360456727    -0.003379815760
      13       -0.003338725290    -0.002279831676     0.001155979336
      14        0.012532137629     0.003764599541     0.005344447798


*** tstop() called on gpu-2-12.local at Wed Jun 14 14:38:53 2017
Module time:
	user time   =     439.06 seconds =       7.32 minutes
	system time =       2.99 seconds =       0.05 minutes
	total time  =        442 seconds =       7.37 minutes
Total time:
	user time   =     877.48 seconds =      14.62 minutes
	system time =       6.30 seconds =       0.10 minutes
	total time  =        884 seconds =      14.73 minutes

			-----------------------------------------
			 OPTKING 2.0: for geometry optimizations 
			  - R.A. King,  Bethel University        
			-----------------------------------------

	Previous internal coordinate definitions found.
	---Fragment 1 Geometry and Gradient---
	 H          -3.2176805008        0.4839214131        2.5900968046
	 H          -4.0688398065        3.1597669228        0.8031299172
	 H          -4.4828493987        0.1121666391       -0.4672961114
	 C          -3.2789449898        1.2748343241        0.7061925272
	 H          -0.6818289032        2.1522626044       -2.2827545514
	 H           0.5814524934        2.5223285386        0.7796295194
	 C          -0.6041900844        1.3477945686       -0.4033021565
	 H          -0.4748849563       -2.5580821221        0.7310366584
	 H           0.3500600527       -2.0377790664       -2.4559178518
	 C           0.5380373385       -1.3245546597       -0.5482750940
	 H           4.1299690064       -3.1806660718        0.0753273724
	 H           3.5462878312       -0.5973024537        2.0903172173
	 H           4.3747236511       -0.0745032231       -1.0916238997
	 C           3.3403601627       -1.2965720010        0.1805525925
	             0.0015297390        0.0015540763       -0.0035508960
	             0.0032683274       -0.0021722912       -0.0008633293
	             0.0036773299        0.0023889169        0.0009096328
	            -0.0121661339       -0.0044165232        0.0067250274
	            -0.0025538319       -0.0046064632        0.0021927501
	            -0.0025851788       -0.0039686171       -0.0007676853
	             0.0114462161        0.0149019076       -0.0046943254
	             0.0025200344        0.0040554588       -0.0009273692
	             0.0028637223        0.0045435738        0.0022252306
	            -0.0118750275       -0.0147852080       -0.0040683397
	            -0.0033893184        0.0023808583       -0.0003013075
	            -0.0019292910       -0.0013604567       -0.0033798158
	            -0.0033387253       -0.0022798317        0.0011559793
	             0.0125321376        0.0037645995        0.0053444478

	---Fragment 1 Intrafragment Coordinates---
	 - Coordinate -           - BOHR/RAD -       - ANG/DEG -
	 R(1,4)           =         2.044112	       1.081697
	 R(2,4)           =         2.046045	       1.082721
	 R(3,4)           =         2.044079	       1.081680
	 R(4,7)           =         2.896656	       1.532844
	 R(5,7)           =         2.045859	       1.082622
	 R(6,7)           =         2.045631	       1.082501
	 R(7,10)          =         2.909837	       1.539819
	 R(8,10)          =         2.045542	       1.082454
	 R(9,10)          =         2.045269	       1.082310
	 R(10,14)         =         2.895684	       1.532330
	 R(11,14)         =         2.045572	       1.082470
	 R(12,14)         =         2.044159	       1.081722
	 R(13,14)         =         2.044943	       1.082137
	 B(1,4,2)         =         1.901132	     108.926862
	 B(1,4,3)         =         1.903573	     109.066704
	 B(1,4,7)         =         1.912483	     109.577212
	 B(2,4,3)         =         1.900571	     108.894711
	 B(2,4,7)         =         1.929892	     110.574650
	 B(3,4,7)         =         1.915893	     109.772580
	 B(4,7,5)         =         1.903642	     109.070637
	 B(4,7,6)         =         1.905157	     109.157469
	 B(4,7,10)        =         1.937371	     111.003199
	 B(5,7,6)         =         1.904410	     109.114637
	 B(5,7,10)        =         1.907367	     109.284100
	 B(6,7,10)        =         1.905619	     109.183912
	 B(7,10,8)        =         1.905274	     109.164180
	 B(7,10,9)        =         1.907788	     109.308215
	 B(7,10,14)       =         1.937424	     111.006215
	 B(8,10,9)        =         1.904484	     109.118924
	 B(8,10,14)       =         1.904594	     109.125225
	 B(9,10,14)       =         1.904001	     109.091208
	 B(10,14,11)      =         1.930199	     110.592266
	 B(10,14,12)      =         1.913404	     109.629953
	 B(10,14,13)      =         1.916332	     109.797736
	 B(11,14,12)      =         1.901015	     108.920139
	 B(11,14,13)      =         1.899884	     108.855312
	 B(12,14,13)      =         1.902678	     109.015393
	 D(1,4,7,5)       =        -3.135424	    -179.646540
	 D(1,4,7,6)       =        -1.056104	     -60.510297
	 D(1,4,7,10)      =         1.045235	      59.887565
	 D(2,4,7,5)       =        -1.039628	     -59.566291
	 D(2,4,7,6)       =         1.039692	      59.569952
	 D(2,4,7,10)      =         3.141031	     179.967814
	 D(3,4,7,5)       =         1.057659	      60.599385
	 D(3,4,7,6)       =         3.136978	     179.735628
	 D(3,4,7,10)      =        -1.044868	     -59.866510
	 D(4,7,10,8)      =        -0.345710	     -19.807711
	 D(4,7,10,9)      =         1.736228	      99.478525
	 D(4,7,10,14)     =        -2.445886	    -140.138957
	 D(5,7,10,8)      =        -2.446028	    -140.147078
	 D(5,7,10,9)      =        -0.364090	     -20.860842
	 D(5,7,10,14)     =         1.736981	      99.521675
	 D(6,7,10,8)      =         1.755356	     100.574475
	 D(6,7,10,9)      =        -2.445892	    -140.139289
	 D(6,7,10,14)     =        -0.344821	     -19.756771
	 D(7,10,14,11)    =         3.141072	     179.970172
	 D(7,10,14,12)    =         1.044639	      59.853389
	 D(7,10,14,13)    =        -1.045203	     -59.885741
	 D(8,10,14,11)    =         1.040492	      59.615822
	 D(8,10,14,12)    =        -1.055941	     -60.500961
	 D(8,10,14,13)    =         3.137402	     179.759910
	 D(9,10,14,11)    =        -1.038798	     -59.518748
	 D(9,10,14,12)    =        -3.135231	    -179.635531
	 D(9,10,14,13)    =         1.058112	      60.625339

	Current energy   :      -158.1562177630

	Energy change for the previous step:
		Projected    :        -0.0041165389
		Actual       :        -0.0029588083

	Performing BFGS update.
	Previous computed or guess Hessian on step 1.
	Steps to be used in Hessian update: 1
	Adding user-defined constraint: Fragment 1; Coordinate 49:
		Value =    -2.445886; Fixed value    =    -2.443460
		Force =     0.001274; Force constant =     0.525000
	Removing off-diagonal coupling between coordinate 49 and others.
	Taking RFO optimization step.
	Going to follow RFO solution 1.
	Using RFO vector 1.

	Determining step-restricting scale parameter for RS-RFO.
	Maximum step size allowed    0.10000

	 Iter      |step|        alpha        rfo_root  
	------------------------------------------------
	    0     0.19475       1.00000           1
	    1     0.15325       4.66679           1
	    2     0.12188      13.41580           1
	    3     0.10544      23.01375           1
	    4     0.10047      27.17301           1
	    5     0.10000      27.60582           1
	------------------------------------------------
	Norm of target step-size    0.10000
	Projected energy change by RFO approximation:        -0.0018615910

	Back-transformation to cartesian coordinates...
	Successfully converged to displaced geometry.

	--- Internal Coordinate Step in ANG or DEG, aJ/ANG or AJ/DEG ---
	 ---------------------------------------------------------------------------
	   Coordinate                Previous        Force       Change         New 
	   ----------                --------       ------       ------       ------
	    1 R(1,4)          =      1.081697     0.031538     0.005835     1.087532
	    2 R(2,4)          =      1.082721     0.027220     0.004814     1.087535
	    3 R(3,4)          =      1.081680     0.033341     0.006129     1.087809
	    4 R(4,7)          =      1.532844    -0.038789    -0.010204     1.522640
	    5 R(5,7)          =      1.082622     0.030721     0.005654     1.088276
	    6 R(6,7)          =      1.082501     0.034775     0.006534     1.089035
	    7 R(7,10)         =      1.539819    -0.019370    -0.005778     1.534042
	    8 R(8,10)         =      1.082454     0.035208     0.006600     1.089053
	    9 R(9,10)         =      1.082310     0.032322     0.005930     1.088239
	   10 R(10,14)        =      1.532330    -0.036940    -0.009754     1.522576
	   11 R(11,14)        =      1.082470     0.028718     0.005065     1.087535
	   12 R(12,14)        =      1.081722     0.031450     0.005818     1.087540
	   13 R(13,14)        =      1.082137     0.031063     0.005736     1.087874
	   14 B(1,4,2)        =    108.926862    -0.000142    -0.603166   108.323695
	   15 B(1,4,3)        =    109.066704    -0.000149    -0.796914   108.269790
	   16 B(1,4,7)        =    109.577212     0.000104     0.529528   110.106740
	   17 B(2,4,3)        =    108.894711    -0.000156    -0.658217   108.236494
	   18 B(2,4,7)        =    110.574650     0.000203     0.826751   111.401401
	   19 B(3,4,7)        =    109.772580     0.000132     0.638989   110.411568
	   20 B(4,7,5)        =    109.070637    -0.000046     0.164621   109.235257
	   21 B(4,7,6)        =    109.157469    -0.000052    -0.117480   109.039988
	   22 B(4,7,10)       =    111.003199     0.000269     1.083669   112.086868
	   23 B(5,7,6)        =    109.114637    -0.000093    -1.193655   107.920982
	   24 B(5,7,10)       =    109.284100    -0.000027     0.139308   109.423407
	   25 B(6,7,10)       =    109.183912    -0.000056    -0.141531   109.042381
	   26 B(7,10,8)       =    109.164180    -0.000056    -0.132858   109.031322
	   27 B(7,10,9)       =    109.308215    -0.000029     0.125492   109.433707
	   28 B(7,10,14)      =    111.006215     0.000270     1.083620   112.089835
	   29 B(8,10,9)       =    109.118924    -0.000094    -1.195923   107.923001
	   30 B(8,10,14)      =    109.125225    -0.000050    -0.100336   109.024889
	   31 B(9,10,14)      =    109.091208    -0.000047     0.154764   109.245972
	   32 B(10,14,11)     =    110.592266     0.000202     0.816362   111.408628
	   33 B(10,14,12)     =    109.629953     0.000095     0.489224   110.119178
	   34 B(10,14,13)     =    109.797736     0.000128     0.623943   110.421679
	   35 B(11,14,12)     =    108.920139    -0.000139    -0.593541   108.326598
	   36 B(11,14,13)     =    108.855312    -0.000152    -0.635767   108.219544
	   37 B(12,14,13)     =    109.015393    -0.000143    -0.762640   108.252753
	   38 D(1,4,7,5)      =   -179.646540     0.000019     0.791841  -178.854699
	   39 D(1,4,7,6)      =    -60.510297    -0.000021    -0.622668   -61.132965
	   40 D(1,4,7,10)     =     59.887565    -0.000006    -0.188230    59.699335
	   41 D(2,4,7,5)      =    -59.566291     0.000023     0.914226   -58.652064
	   42 D(2,4,7,6)      =     59.569952    -0.000017    -0.500283    59.069669
	   43 D(2,4,7,10)     =    179.967814    -0.000002    -0.065845   179.901969
	   44 D(3,4,7,5)      =     60.599385     0.000027     1.045359    61.644745
	   45 D(3,4,7,6)      =    179.735628    -0.000012    -0.369150   179.366478
[...]
  CGR           4          0          1   8.374E-04
  CGR           5          0          1   1.429E-04
  CGR           6          0          1   3.247E-05
  CGR           7          0          1   6.486E-06
  CGR           8          0          1   1.315E-06
  CGR           9          1          0   1.943E-07

    CGRSolver converged.

  ==> DFCorrGrad: Density-Fitted Correlated Gradients <==

    OpenMP threads:              1
    Integrals threads:           1
    Memory (MB):               715
    Schwarz Cutoff:          0E+00
    Fitting Condition:       1E-12

   => Auxiliary Basis Set <=

  Basis Set: (AUG-CC-PVTZ AUX)
    Blend: AUG-CC-PVTZ-JKFIT
    Number of shells: 260
    Number of basis function: 876
    Number of Cartesian functions: 1074
    Spherical Harmonics?: true
    Max angular momentum: 4

	-----------------------------------------------------------
	 ==================> DF-MP2 Energies <==================== 
	-----------------------------------------------------------
	 Reference Energy          =    -157.3522326935780029 [Eh]
	 Singles Energy            =      -0.0000000000000000 [Eh]
	 Same-Spin Energy          =      -0.1654223254923584 [Eh]
	 Opposite-Spin Energy      =      -0.6398898619696735 [Eh]
	 Correlation Energy        =      -0.8053121874620319 [Eh]
	 Total Energy              =    -158.1575448810400246 [Eh]
	-----------------------------------------------------------
	 ================> DF-SCS-MP2 Energies <================== 
	-----------------------------------------------------------
	 SCS Same-Spin Scale       =       0.3333333333333333 [-]
	 SCS Opposite-Spin Scale   =       1.2000000000000000 [-]
	 SCS Same-Spin Energy      =      -0.0551407751641195 [Eh]
	 SCS Opposite-Spin Energy  =      -0.7678678343636082 [Eh]
	 SCS Correlation Energy    =      -0.8230086095277276 [Eh]
	 SCS Total Energy          =    -158.1752413031057358 [Eh]
	-----------------------------------------------------------


  -Total Gradient:
     Atom            X                  Y                   Z
    ------   -----------------  -----------------  -----------------
       1       -0.000017977903     0.000003015298    -0.000005422809
       2       -0.000000990992    -0.000008694185     0.000000303645
       3        0.000015147190     0.000003180681     0.000005094818
       4        0.001014557492     0.000318139579     0.002411242044
       5       -0.000014240600     0.000008481336     0.000001398552
       6       -0.000008276640    -0.000017344610    -0.000045657731
       7       -0.001618442307    -0.000562082917    -0.002328665590
       8        0.000002084883     0.000019536787    -0.000045981830
       9        0.000014378478    -0.000007942019    -0.000000198941
      10        0.001276277892     0.000671746352    -0.002504323930
      11        0.000000729236     0.000009949676     0.000000919909
      12        0.000017125132    -0.000003059863    -0.000008357192
      13       -0.000013745968    -0.000003135609     0.000006890456
      14       -0.000666625894    -0.000431790508     0.002512758599


*** tstop() called on gpu-2-12.local at Wed Jun 14 15:06:46 2017
Module time:
	user time   =     364.22 seconds =       6.07 minutes
	system time =       2.85 seconds =       0.05 minutes
	total time  =        367 seconds =       6.12 minutes
Total time:
	user time   =    2536.89 seconds =      42.28 minutes
	system time =      19.92 seconds =       0.33 minutes
	total time  =       2557 seconds =      42.62 minutes

			-----------------------------------------
			 OPTKING 2.0: for geometry optimizations 
			  - R.A. King,  Bethel University        
			-----------------------------------------

	Previous internal coordinate definitions found.
	---Fragment 1 Geometry and Gradient---
	 H          -3.2599952830        0.5326463310        2.6078476913
	 H          -4.1162855897        3.1580563317        0.7486434363
	 H          -4.5175801606        0.0744954427       -0.4328392125
	 C          -3.2852092171        1.2789011128        0.6917609567
	 H          -0.6362804225        2.2000051102       -2.2545899328
	 H           0.5473688929        2.5230146757        0.8026767910
	 C          -0.6303722641        1.3237154670       -0.3917435092
	 H          -0.4370665163       -2.5584973330        0.7566641999
	 H           0.3056852476       -2.0936324957       -2.4189350624
	 C           0.5647421986       -1.3025940794       -0.5360508484
	 H           4.1705320264       -3.1755146868        0.0183052532
	 H           3.5927692013       -0.6397268666        2.0964210790
	 H           4.4114889782       -0.0403620776       -1.0670659829
	 C           3.3457467113       -1.2983834772        0.1640471246
	            -0.0000179779        0.0000030153       -0.0000054228
	            -0.0000009910       -0.0000086942        0.0000003036
	             0.0000151472        0.0000031807        0.0000050948
	             0.0010145575        0.0003181396        0.0024112420
	            -0.0000142406        0.0000084813        0.0000013986
	            -0.0000082766       -0.0000173446       -0.0000456577
	            -0.0016184423       -0.0005620829       -0.0023286656
	             0.0000020849        0.0000195368       -0.0000459818
	             0.0000143785       -0.0000079420       -0.0000001989
	             0.0012762779        0.0006717464       -0.0025043239
	             0.0000007292        0.0000099497        0.0000009199
	             0.0000171251       -0.0000030599       -0.0000083572
	            -0.0000137460       -0.0000031356        0.0000068905
	            -0.0006666259       -0.0004317905        0.0025127586

	---Fragment 1 Intrafragment Coordinates---
	 - Coordinate -           - BOHR/RAD -       - ANG/DEG -
	 R(1,4)           =         2.056434	       1.088218
	 R(2,4)           =         2.055516	       1.087732
	 R(3,4)           =         2.057682	       1.088879
	 R(4,7)           =         2.867778	       1.517563
	 R(5,7)           =         2.058668	       1.089400
	 R(6,7)           =         2.062046	       1.091188
	 R(7,10)          =         2.889053	       1.528821
	 R(8,10)          =         2.062044	       1.091187
	 R(9,10)          =         2.058666	       1.089399
	 R(10,14)         =         2.867776	       1.517562
	 R(11,14)         =         2.055513	       1.087731
	 R(12,14)         =         2.056433	       1.088218
	 R(13,14)         =         2.057684	       1.088880
	 B(1,4,2)         =         1.886963	     108.114999
	 B(1,4,3)         =         1.879868	     107.708510
	 B(1,4,7)         =         1.924479	     110.264534
	 B(2,4,3)         =         1.883967	     107.943357
	 B(2,4,7)         =         1.950304	     111.744169
	 B(3,4,7)         =         1.935952	     110.921900
	 B(4,7,5)         =         1.923969	     110.235318
	 B(4,7,6)         =         1.895452	     108.601375
	 B(4,7,10)        =         1.968845	     112.806499
	 B(5,7,6)         =         1.852733	     106.153766
	 B(5,7,10)        =         1.920837	     110.055851
	 B(6,7,10)        =         1.897980	     108.746231
	 B(7,10,8)        =         1.897981	     108.746320
	 B(7,10,9)        =         1.920833	     110.055636
	 B(7,10,14)       =         1.968850	     112.806780
	 B(8,10,9)        =         1.852732	     106.153702
	 B(8,10,14)       =         1.895452	     108.601386
	 B(9,10,14)       =         1.923967	     110.235200
	 B(10,14,11)      =         1.950305	     111.744249
	 B(10,14,12)      =         1.924480	     110.264577
	 B(10,14,13)      =         1.935956	     110.922122
	 B(11,14,12)      =         1.886959	     108.114762
	 B(11,14,13)      =         1.883967	     107.943332
	 B(12,14,13)      =         1.879866	     107.708409
	 D(1,4,7,5)       =        -3.068114	    -175.789957
	 D(1,4,7,6)       =        -1.045137	     -59.881933
	 D(1,4,7,10)      =         1.060116	      60.740154
	 D(2,4,7,5)       =        -0.968995	     -55.519324
	 D(2,4,7,6)       =         1.053982	      60.388700
	 D(2,4,7,10)      =        -3.123951	    -178.989214
	 D(3,4,7,5)       =         1.134158	      64.982476
	 D(3,4,7,6)       =        -3.126051	    -179.109500
	 D(3,4,7,10)      =        -1.020798	     -58.487413
	 D(4,7,10,8)      =        -0.347610	     -19.916567
	 D(4,7,10,9)      =         1.675076	      95.974762
	 D(4,7,10,14)     =        -2.451421	    -140.456065
	 D(5,7,10,8)      =        -2.504301	    -143.485853
	 D(5,7,10,9)      =        -0.481615	     -27.594523
	 D(5,7,10,14)     =         1.675074	      95.974650
	 D(6,7,10,8)      =         1.756197	     100.622673
	 D(6,7,10,9)      =        -2.504303	    -143.485997
	 D(6,7,10,14)     =        -0.347614	     -19.916824
	 D(7,10,14,11)    =        -3.123947	    -178.988982
	 D(7,10,14,12)    =         1.060124	      60.740603
	 D(7,10,14,13)    =        -1.020791	     -58.487007
	 D(8,10,14,11)    =         1.053980	      60.388631
	 D(8,10,14,12)    =        -1.045134	     -59.881784
	 D(8,10,14,13)    =        -3.126049	    -179.109394
	 D(9,10,14,11)    =        -0.968994	     -55.519258
	 D(9,10,14,12)    =        -3.068109	    -175.789673
	 D(9,10,14,13)    =         1.134162	      64.982717

	Current energy   :      -158.1575448810

	Energy change for the previous step:
		Projected    :        -0.0000073305
		Actual       :        -0.0000062908

	Performing BFGS update.
	Previous computed or guess Hessian on step 1.
	Steps to be used in Hessian update: 5 4
	Adding user-defined constraint: Fragment 1; Coordinate 49:
		Value =    -2.451421; Fixed value    =    -2.443460
		Force =     0.004975; Force constant =     0.625000
	Removing off-diagonal coupling between coordinate 49 and others.
	Taking RFO optimization step.
	Going to follow RFO solution 1.
	Rejecting RFO root 1 because normalization gives large value.
	Using RFO vector 2.
	Norm of target step-size    0.00071
	Projected energy change by RFO approximation:         0.0000000121

	Back-transformation to cartesian coordinates...
	Successfully converged to displaced geometry.

	--- Internal Coordinate Step in ANG or DEG, aJ/ANG or AJ/DEG ---
	 ---------------------------------------------------------------------------
	   Coordinate                Previous        Force       Change         New 
	   ----------                --------       ------       ------       ------
	    1 R(1,4)          =      1.088218     0.000052     0.000026     1.088244
	    2 R(2,4)          =      1.087732     0.000062     0.000023     1.087756
	    3 R(3,4)          =      1.088879     0.000113     0.000034     1.088912
	    4 R(4,7)          =      1.517563     0.000244     0.000046     1.517608
	    5 R(5,7)          =      1.089400    -0.000020     0.000007     1.089407
	    6 R(6,7)          =      1.091188     0.000340     0.000053     1.091240
	    7 R(7,10)         =      1.528821    -0.000252    -0.000053     1.528768
	    8 R(8,10)         =      1.091187     0.000344     0.000053     1.091240
	    9 R(9,10)         =      1.089399    -0.000012     0.000008     1.089407
	   10 R(10,14)        =      1.517562     0.000246     0.000046     1.517608
	   11 R(11,14)        =      1.087731     0.000073     0.000025     1.087756
	   12 R(12,14)        =      1.088218     0.000056     0.000027     1.088244
	   13 R(13,14)        =      1.088880     0.000108     0.000032     1.088912
	   14 B(1,4,2)        =    108.114999     0.000001     0.000169   108.115168
	   15 B(1,4,3)        =    107.708510     0.000001     0.001992   107.710502
	   16 B(1,4,7)        =    110.264534    -0.000002    -0.007969   110.256565
	   17 B(2,4,3)        =    107.943357    -0.000000     0.000420   107.943777
	   18 B(2,4,7)        =    111.744169    -0.000000    -0.002610   111.741559
	   19 B(3,4,7)        =    110.921900     0.000001     0.008149   110.930049
	   20 B(4,7,5)        =    110.235318     0.000005     0.004964   110.240282
	   21 B(4,7,6)        =    108.601375    -0.000005    -0.006037   108.595338
	   22 B(4,7,10)       =    112.806499     0.000000    -0.000944   112.805555
	   23 B(5,7,6)        =    106.153766     0.000001     0.007167   106.160932
	   24 B(5,7,10)       =    110.055851    -0.000001    -0.006796   110.049054
	   25 B(6,7,10)       =    108.746231     0.000000     0.002128   108.748359
	   26 B(7,10,8)       =    108.746320     0.000000     0.002042   108.748362
	   27 B(7,10,9)       =    110.055636    -0.000001    -0.006537   110.049099
	   28 B(7,10,14)      =    112.806780     0.000000    -0.001214   112.805566
	   29 B(8,10,9)       =    106.153702     0.000001     0.007206   106.160908
	   30 B(8,10,14)      =    108.601386    -0.000005    -0.006080   108.595306
	   31 B(9,10,14)      =    110.235200     0.000005     0.005077   110.240276
	   32 B(10,14,11)     =    111.744249    -0.000000    -0.002767   111.741482
	   33 B(10,14,12)     =    110.264577    -0.000002    -0.008023   110.256555
	   34 B(10,14,13)     =    110.922122     0.000001     0.007903   110.930025
	   35 B(11,14,12)     =    108.114762     0.000001     0.000408   108.115169
	   36 B(11,14,13)     =    107.943332    -0.000000     0.000519   107.943851
	   37 B(12,14,13)     =    107.708409     0.000001     0.002136   107.710545
	   38 D(1,4,7,5)      =   -175.789957     0.000000     0.000359  -175.789598
	   39 D(1,4,7,6)      =    -59.881933     0.000000     0.008250   -59.873683
	   40 D(1,4,7,10)     =     60.740154    -0.000000     0.006175    60.746329
	   41 D(2,4,7,5)      =    -55.519324     0.000000    -0.006546   -55.525871
	   42 D(2,4,7,6)      =     60.388700     0.000000     0.001345    60.390045
	   43 D(2,4,7,10)     =   -178.989214    -0.000001    -0.000730  -178.989944
	   44 D(3,4,7,5)      =     64.982476     0.000000    -0.002175    64.980301
	   45 D(3,4,7,6)      =   -179.109500     0.000000     0.005716  -179.103784
	   46 D(3,4,7,10)     =    -58.487413    -0.000000     0.003641   -58.483773
	   47 D(4,7,10,8)     =    -19.916567     0.000001    -0.007066   -19.923634
	   48 D(4,7,10,9)     =     95.974762     0.000001    -0.000877    95.973885
	   49 D(4,7,10,14)    =   -140.456065     0.000003    -0.000029  -140.456093
	   50 D(5,7,10,8)     =   -143.485853    -0.000000    -0.007769  -143.493622
	   51 D(5,7,10,9)     =    -27.594523    -0.000000    -0.001580   -27.596103
	   52 D(5,7,10,14)    =     95.974650     0.000001    -0.000731    95.973919
	   53 D(6,7,10,8)     =    100.622673    -0.000000    -0.013817   100.608856
	   54 D(6,7,10,9)     =   -143.485997    -0.000000    -0.007628  -143.493625
	   55 D(6,7,10,14)    =    -19.916824     0.000001    -0.006779   -19.923603
	   56 D(7,10,14,11)   =   -178.988982    -0.000001    -0.000409  -178.989391
	   57 D(7,10,14,12)   =     60.740603    -0.000000     0.006335    60.746938
	   58 D(7,10,14,13)   =    -58.487007    -0.000000     0.003812   -58.483195
	   59 D(8,10,14,11)   =     60.388631     0.000000     0.001978    60.390609
	   60 D(8,10,14,12)   =    -59.881784     0.000000     0.008722   -59.873062
	   61 D(8,10,14,13)   =   -179.109394     0.000000     0.006199  -179.103195
	   62 D(9,10,14,11)   =    -55.519258     0.000000    -0.005998   -55.525256
	   63 D(9,10,14,12)   =   -175.789673     0.000000     0.000747  -175.788927
	   64 D(9,10,14,13)   =     64.982717     0.000000    -0.001776    64.980940
	 ---------------------------------------------------------------------------
	Successfully symmetrized geometry.
	 Forces used to impose fixed constraints are not included.
	  Forces zeroed: 49 

  ==> Convergence Check <==

  Measures of convergence in internal coordinates in au.
  Criteria marked as inactive (o), active & met (*), and active & unmet ( ).
  ---------------------------------------------------------------------------------------------
   Step     Total Energy     Delta E     MAX Force     RMS Force      MAX Disp      RMS Disp   
  ---------------------------------------------------------------------------------------------
    Convergence Criteria    1.00e-06 *    3.00e-04 *             o    1.20e-03 *             o
  ---------------------------------------------------------------------------------------------
      6    -158.15754488   -6.29e-06      6.97e-05 *    2.84e-05 o    2.41e-04 *    8.82e-05 o  ~
  ---------------------------------------------------------------------------------------------


  **** Optimization is complete! (in 6 steps) ****

  ==> Optimization Summary <==

  Measures of convergence in internal coordinates in au.
  --------------------------------------------------------------------------------------------------------------- ~
   Step         Total Energy             Delta E       MAX Force       RMS Force        MAX Disp        RMS Disp  ~
  --------------------------------------------------------------------------------------------------------------- ~
      1    -158.153258954685   -158.153258954685      0.01276083      0.00552480      0.02621097      0.01251407  ~
      2    -158.156217762960     -0.002958808275      0.00470816      0.00218434      0.03681121      0.01251579  ~
      3    -158.157211779273     -0.000994016312      0.00178132      0.00065134      0.04819334      0.01252788  ~
      4    -158.157485305861     -0.000273526588      0.00089397      0.00021292      0.02734790      0.01251068  ~
      5    -158.157538590258     -0.000053284397      0.00015853      0.00006369      0.00670267      0.00304227  ~
      6    -158.157544881040     -0.000006290782      0.00014549      0.00003374      0.00024115      0.00008824  ~
  --------------------------------------------------------------------------------------------------------------- ~

	Writing optimization data to binary file.
	Final energy is   -158.1575448810400
	Final (previous) structure:
	Cartesian Geometry (in Angstrom)
	    H    -1.7251152039   0.2818642986   1.3800135617
	    H    -2.1782445181   1.6711714342   0.3961650439
	    H    -2.3906004590   0.0394212904  -0.2290486463
	    C    -1.7384578431   0.6767653209   0.3660641321
	    H    -0.3367050979   1.1641925631  -1.1930776071
	    H     0.2896551428   1.3351218633   0.4247582637
	    C    -0.3335786351   0.7004800558  -0.2073017367
	    H    -0.2312856390  -1.3538984769   0.4004094491
	    H     0.1617616660  -1.1079025999  -1.2800453041
	    C     0.2988487002  -0.6893030989  -0.2836658916
	    H     2.2069504961  -1.6804099978   0.0096867228
	    H     1.9012115771  -0.3385288775   1.1093782546
	    H     2.3344594232  -0.0213586916  -0.5646669982
	    C     1.7704929053  -0.6870749441   0.0868099995
	Saving final (previous) structure.
			--------------------------
			 OPTKING Finished Execution 
			--------------------------

    Final optimized geometry and variables:
    Molecular point group: c1
    Full point group: C1

    Geometry (in Angstrom), charge = 0, multiplicity = 1:

    H           -1.725115203870     0.281864298615     1.380013561709
    H           -2.178244518095     1.671171434164     0.396165043858
    H           -2.390600458950     0.039421290420    -0.229048646264
    C           -1.738457843133     0.676765320917     0.366064132088
    H           -0.336705097860     1.164192563105    -1.193077607143
    H            0.289655142789     1.335121863325     0.424758263653
    C           -0.333578635103     0.700480055816    -0.207301736677
    H           -0.231285639049    -1.353898476865     0.400409449127
    H            0.161761666029    -1.107902599885    -1.280045304106
    C            0.298848700210    -0.689303098887    -0.283665891638
    H            2.206950496066    -1.680409997811     0.009686722786
    H            1.901211577067    -0.338528877543     1.109378254593
    H            2.334459423227    -0.021358691575    -0.564666998206
    C            1.770492905344    -0.687074944124     0.086809999456

	Cleaning optimization helper files.

*** Psi4 exiting successfully. Buy a developer a beer!
