
    -----------------------------------------------------------------------
          Psi4: An Open-Source Ab Initio Electronic Structure Package
                               Psi4 1.1 release

                         Git: Rev {HEAD} add49b9 


    R. M. Parrish, L. A. Burns, D. G. A. Smith, A. C. Simmonett,
    A. E. DePrince III, E. G. Hohenstein, U. Bozkaya, A. Yu. Sokolov,
    R. Di Remigio, R. M. Richard, J. F. Gonthier, A. M. James,
    H. R. McAlexander, A. Kumar, M. Saitow, X. Wang, B. P. Pritchard,
    P. Verma, H. F. Schaefer III, K. Patkowski, R. A. King, E. F. Valeev,
    F. A. Evangelista, J. M. Turney, T. D. Crawford, and C. D. Sherrill,
    J. Chem. Theory Comput. in press (2017).
    (doi: 10.1021/acs.jctc.7b00174)

    -----------------------------------------------------------------------


    Psi4 started on: Wednesday, 14 June 2017 02:21PM

    Process ID:  13283
    PSIDATADIR: /cbio/jclab/home/chayas/anaconda/envs/py35/share/psi4
    Memory:     500.0 MiB
    Threads:    1
    
  ==> Input File <==

--------------------------------------------------------------------------

memory 5000 mb

molecule butane {
  symmetry C1
  0 1 
  H      1.790   2.398   -9.050
  H      2.025   0.865   -9.855
  H      1.577   0.906   -8.167
  C      2.142   1.395   -8.932
  H      4.169   2.051   -9.210
  H      3.731   1.788   -7.539
  C      3.631   1.416   -8.537
  H      3.665   -0.647   -7.940
  H      4.104   -0.384   -9.610
  C      4.203   -0.012   -8.612
  H      6.088   -0.983   -8.270
  H      5.791   0.381   -7.220
  H      6.230   0.644   -8.890
  C      5.691   0.009   -8.218
  units Angstrom
}

dih_string = "10 7 4 3 70"
set optking fixed_dihedral = $dih_string

optimize('MP2/aug-cc-pvtz')
--------------------------------------------------------------------------

  Memory set to   4.657 GiB by Python driver.
gradient() will perform analytic gradient computation.

*** tstart() called on gpu-1-6.local
*** at Wed Jun 14 14:21:22 2017

    SCF Algorithm Type (re)set to DF.

*** tstart() called on gpu-1-6.local
*** at Wed Jun 14 14:21:22 2017

   => Loading Basis Set <=

    Name: AUG-CC-PVTZ
    Role: ORBITAL
    Keyword: BASIS
    atoms 1-3, 5-6, 8-9, 11-13 entry H          line    34 file /cbio/jclab/home/chayas/anaconda/envs/py35/share/psi4/basis/aug-cc-pvtz.gbs 
    atoms 4, 7, 10, 14         entry C          line   221 file /cbio/jclab/home/chayas/anaconda/envs/py35/share/psi4/basis/aug-cc-pvtz.gbs 


         ---------------------------------------------------------
                                   SCF
            by Justin Turney, Rob Parrish, and Andy Simmonett
                              RHF Reference
                        1 Threads,   4768 MiB Core
         ---------------------------------------------------------

  ==> Geometry <==

    Molecular point group: c1
    Full point group: C1

    Geometry (in Angstrom), charge = 0, multiplicity = 1:

       Center              X                  Y                   Z               Mass       
    ------------   -----------------  -----------------  -----------------  -----------------
           H         -2.126793382205     1.696017352882    -0.475189264913     1.007825032070
           H         -1.891793382205     0.163017352882    -1.280189264913     1.007825032070
           H         -2.339793382205     0.204017352882     0.407810735087     1.007825032070
           C         -1.774793382205     0.693017352882    -0.357189264913    12.000000000000
           H          0.252206617795     1.349017352882    -0.635189264913     1.007825032070
           H         -0.185793382205     1.086017352882     1.035810735087     1.007825032070
           C         -0.285793382205     0.714017352882     0.037810735087    12.000000000000
           H         -0.251793382205    -1.348982647118     0.634810735087     1.007825032070
           H          0.187206617795    -1.085982647118    -1.035189264913     1.007825032070
           C          0.286206617795    -0.713982647118    -0.037189264913    12.000000000000
           H          2.171206617795    -1.684982647118     0.304810735087     1.007825032070
           H          1.874206617795    -0.320982647118     1.354810735087     1.007825032070
           H          2.313206617795    -0.057982647118    -0.315189264913     1.007825032070
           C          1.774206617795    -0.692982647118     0.356810735087    12.000000000000

  Running in c1 symmetry.

  Rotational constants: A =      0.76943  B =      0.12465  C =      0.11638 [cm^-1]
  Rotational constants: A =  23066.98389  B =   3736.84739  C =   3488.99123 [MHz]
  Nuclear repulsion =  131.822483816195501

  Charge       = 0
  Multiplicity = 1
  Electrons    = 34
  Nalpha       = 17
  Nbeta        = 17

  ==> Algorithm <==

  SCF Algorithm Type is DF.
  DIIS enabled.
  MOM disabled.
  Fractional occupation disabled.
  Guess Type is SAD.
  Energy threshold   = 1.00e-10
  Density threshold  = 1.00e-10
  Integral threshold = 0.00e+00

  ==> Primary Basis <==

  Basis Set: AUG-CC-PVTZ
    Blend: AUG-CC-PVTZ
    Number of shells: 146
    Number of basis function: 414
    Number of Cartesian functions: 470
    Spherical Harmonics?: true
    Max angular momentum: 3

   => Loading Basis Set <=

    Name: (AUG-CC-PVTZ AUX)
    Role: JKFIT
    Keyword: DF_BASIS_SCF
    atoms 1-3, 5-6, 8-9, 11-13 entry H          line    69 file /cbio/jclab/home/chayas/anaconda/envs/py35/share/psi4/basis/aug-cc-pvtz-jkfit.gbs 
    atoms 4, 7, 10, 14         entry C          line   161 file /cbio/jclab/home/chayas/anaconda/envs/py35/share/psi4/basis/aug-cc-pvtz-jkfit.gbs 

  ==> Pre-Iterations <==

   -------------------------------------------------------
    Irrep   Nso     Nmo     Nalpha   Nbeta   Ndocc  Nsocc
   -------------------------------------------------------
     A        414     414       0       0       0       0
   -------------------------------------------------------
    Total     414     414      17      17      17       0
   -------------------------------------------------------

  ==> Integral Setup <==

  ==> DFJK: Density-Fitted J/K Matrices <==

    J tasked:                  Yes
    K tasked:                  Yes
    wK tasked:                  No
    OpenMP threads:              1
    Integrals threads:           1
    Memory (MB):              3576
    Algorithm:                Core
    Integral Cache:           NONE
    Schwarz Cutoff:          1E-12
    Fitting Condition:       1E-12

   => Auxiliary Basis Set <=

  Basis Set: (AUG-CC-PVTZ AUX)
    Blend: AUG-CC-PVTZ-JKFIT
    Number of shells: 260
    Number of basis function: 876
    Number of Cartesian functions: 1074
    Spherical Harmonics?: true
    Max angular momentum: 4

  Minimum eigenvalue in the overlap matrix is 7.9180230030E-06.
  Using Symmetric Orthogonalization.

  SCF Guess: Superposition of Atomic Densities via on-the-fly atomic UHF.

  ==> Iterations <==

                           Total Energy        Delta E     RMS |[F,P]|

   @DF-RHF iter   0:  -158.86529064243584   -1.58865e+02   9.29073e-03 
   @DF-RHF iter   1:  -157.23221421462731    1.63308e+00   9.96980e-04 
   @DF-RHF iter   2:  -157.33681508007047   -1.04601e-01   3.49984e-04 DIIS
   @DF-RHF iter   3:  -157.35016426466683   -1.33492e-02   1.20132e-04 DIIS
   @DF-RHF iter   4:  -157.35236748890105   -2.20322e-03   1.95355e-05 DIIS
   @DF-RHF iter   5:  -157.35244005618193   -7.25673e-05   6.43540e-06 DIIS
   @DF-RHF iter   6:  -157.35244630861911   -6.25244e-06   1.45029e-06 DIIS
   @DF-RHF iter   7:  -157.35244667751004   -3.68891e-07   2.14297e-07 DIIS
   @DF-RHF iter   8:  -157.35244668830535   -1.07953e-08   3.23501e-08 DIIS
   @DF-RHF iter   9:  -157.35244668854216   -2.36810e-10   6.63262e-09 DIIS
   @DF-RHF iter  10:  -157.35244668855196   -9.80549e-12   1.52207e-09 DIIS
   @DF-RHF iter  11:  -157.35244668855225   -2.84217e-13   3.04907e-10 DIIS
   @DF-RHF iter  12:  -157.35244668855319   -9.37916e-13   8.03575e-11 DIIS

  ==> Post-Iterations <==

    Orbital Energies (a.u.)
    -----------------------

    Doubly Occupied:                                                      

       1A    -11.207061     2A    -11.206471     3A    -11.198644  
       4A    -11.198638     5A     -1.070676     6A     -0.981201  
       7A     -0.861637     8A     -0.794871     9A     -0.647520  
      10A     -0.587716    11A     -0.575133    12A     -0.570761  
      13A     -0.514601    14A     -0.503373    15A     -0.476035  
      16A     -0.468564    17A     -0.441753  

    Virtual:                                                              

      18A      0.032268    19A      0.037063    20A      0.039644  
      21A      0.040911    22A      0.056620    23A      0.058505  
      24A      0.059659    25A      0.061153    26A      0.081979  
      27A      0.085067    28A      0.096709    29A      0.112371  
      30A      0.123312    31A      0.130746    32A      0.135624  
      33A      0.142015    34A      0.143716    35A      0.146829  
      36A      0.148422    37A      0.159583    38A      0.159792  
      39A      0.167852    40A      0.170481    41A      0.202202  
      42A      0.209435    43A      0.211743    44A      0.230018  
      45A      0.249382    46A      0.250722    47A      0.251838  
      48A      0.270229    49A      0.275367    50A      0.282044  
      51A      0.282621    52A      0.316001    53A      0.318676  
      54A      0.332199    55A      0.337825    56A      0.339692  
      57A      0.348555    58A      0.357300    59A      0.358583  
      60A      0.360435    61A      0.373929    62A      0.374355  
      63A      0.384474    64A      0.389021    65A      0.390450  
      66A      0.392315    67A      0.395394    68A      0.402702  
      69A      0.408824    70A      0.414571    71A      0.424537  
      72A      0.430249    73A      0.443616    74A      0.449279  
      75A      0.457582    76A      0.462273    77A      0.464764  
      78A      0.469368    79A      0.475869    80A      0.477403  
      81A      0.485363    82A      0.491827    83A      0.499435  
      84A      0.506133    85A      0.507370    86A      0.511447  
      87A      0.522979    88A      0.526257    89A      0.528962  
      90A      0.537349    91A      0.545985    92A      0.561913  
      93A      0.565404    94A      0.576157    95A      0.587188  
      96A      0.595888    97A      0.599064    98A      0.613639  
      99A      0.626681   100A      0.634418   101A      0.639652  
     102A      0.655937   103A      0.685568   104A      0.691958  
     105A      0.702771   106A      0.705812   107A      0.764008  
     108A      0.777624   109A      0.797316   110A      0.817094  
     111A      0.824109   112A      0.826728   113A      0.838974  
     114A      0.843488   115A      0.846449   116A      0.856893  
     117A      0.861586   118A      0.865252   119A      0.887747  
     120A      0.890935   121A      0.898197   122A      0.904524  
     123A      0.908973   124A      0.922265   125A      0.924619  
     126A      0.933666   127A      0.938908   128A      0.947103  
     129A      0.949539   130A      0.960656   131A      0.964273  
     132A      0.969254   133A      0.983154   134A      0.990919  
     135A      0.996240   136A      1.010702   137A      1.012500  
     138A      1.031040   139A      1.048563   140A      1.055506  
     141A      1.072143   142A      1.079495   143A      1.097308  
     144A      1.104869   145A      1.111828   146A      1.127587  
     147A      1.131834   148A      1.133457   149A      1.136900  
     150A      1.162221   151A      1.165592   152A      1.169218  
     153A      1.175058   154A      1.199911   155A      1.202828  
     156A      1.214828   157A      1.225904   158A      1.244187  
     159A      1.253492   160A      1.256552   161A      1.261590  
     162A      1.266785   163A      1.274698   164A      1.280396  
     165A      1.289674   166A      1.305506   167A      1.314722  
     168A      1.330276   169A      1.343724   170A      1.353185  
     171A      1.361825   172A      1.375267   173A      1.393438  
     174A      1.428779   175A      1.433173   176A      1.438820  
     177A      1.463244   178A      1.486186   179A      1.496219  
     180A      1.503287   181A      1.530206   182A      1.533330  
     183A      1.551282   184A      1.557670   185A      1.577629  
     186A      1.581477   187A      1.596635   188A      1.616370  
     189A      1.627867   190A      1.637708   191A      1.646605  
     192A      1.649791   193A      1.684340   194A      1.688428  
     195A      1.700511   196A      1.703004   197A      1.712054  
     198A      1.715551   199A      1.737688   200A      1.740427  
     201A      1.748920   202A      1.758353   203A      1.760954  
     204A      1.778407   205A      1.780377   206A      1.787620  
     207A      1.793804   208A      1.801686   209A      1.829369  
     210A      1.850485   211A      1.864200   212A      1.871123  
     213A      1.890384   214A      1.900327   215A      1.919215  
     216A      1.921616   217A      1.966804   218A      1.977177  
     219A      1.983886   220A      1.986485   221A      1.995078  
     222A      1.999009   223A      2.034606   224A      2.051138  
     225A      2.058771   226A      2.070267   227A      2.098436  
     228A      2.105035   229A      2.145072   230A      2.151113  
     231A      2.161464   232A      2.189868   233A      2.194374  
     234A      2.206351   235A      2.246674   236A      2.258043  
     237A      2.260726   238A      2.291262   239A      2.307531  
     240A      2.322386   241A      2.334108   242A      2.334214  
     243A      2.345430   244A      2.352843   245A      2.377184  
     246A      2.388503   247A      2.433127   248A      2.457785  
     249A      2.471802   250A      2.473712   251A      2.504231  
     252A      2.548673   253A      2.607235   254A      2.618788  
     255A      2.650642   256A      2.676470   257A      2.689585  
     258A      2.885711   259A      2.901400   260A      3.006775  
     261A      3.236245   262A      3.255570   263A      3.274040  
     264A      3.382075   265A      3.401365   266A      3.420700  
     267A      3.452817   268A      3.462843   269A      3.479719  
     270A      3.482264   271A      3.519745   272A      3.535408  
     273A      3.562712   274A      3.575523   275A      3.592734  
     276A      3.606797   277A      3.623844   278A      3.666634  
     279A      3.690477   280A      3.694458   281A      3.719885  
     282A      3.727445   283A      3.729709   284A      3.740399  
     285A      3.753448   286A      3.759704   287A      3.791112  
     288A      3.795442   289A      3.806797   290A      3.817802  
     291A      3.844668   292A      3.857538   293A      3.881712  
     294A      3.890506   295A      3.913841   296A      3.918818  
     297A      3.931645   298A      3.938515   299A      3.967480  
     300A      4.000853   301A      4.010067   302A      4.014589  
     303A      4.020316   304A      4.028110   305A      4.045967  
     306A      4.052703   307A      4.066602   308A      4.077514  
     309A      4.135195   310A      4.180065   311A      4.209364  
     312A      4.220198   313A      4.230865   314A      4.247241  
     315A      4.254907   316A      4.270182   317A      4.278538  
     318A      4.286313   319A      4.308661   320A      4.322780  
     321A      4.349806   322A      4.367177   323A      4.375267  
     324A      4.405495   325A      4.425824   326A      4.436753  
     327A      4.537729   328A      4.556432   329A      4.579906  
     330A      4.589075   331A      4.638958   332A      4.665480  
     333A      4.691309   334A      4.705892   335A      4.726515  
     336A      4.742703   337A      4.745465   338A      4.758822  
     339A      4.766134   340A      4.804783   341A      4.812193  
     342A      4.859037   343A      4.870410   344A      4.883147  
     345A      4.888710   346A      4.903481   347A      4.925974  
     348A      4.954154   349A      4.973142   350A      4.998749  
     351A      5.046957   352A      5.062540   353A      5.080081  
     354A      5.101768   355A      5.127027   356A      5.183723  
     357A      5.187260   358A      5.215170   359A      5.224131  
     360A      5.228686   361A      5.257729   362A      5.271080  
     363A      5.274069   364A      5.295596   365A      5.308609  
     366A      5.361936   367A      5.399907   368A      5.423654  
     369A      5.436118   370A      5.441681   371A      5.456820  
     372A      5.461913   373A      5.484061   374A      5.508154  
     375A      5.576255   376A      5.597415   377A      5.627412  
     378A      5.635956   379A      5.685762   380A      5.690623  
     381A      5.694790   382A      5.751964   383A      5.772842  
     384A      5.802672   385A      5.827026   386A      5.877448  
     387A      5.906842   388A      5.922236   389A      5.950476  
     390A      6.031053   391A      6.105119   392A      6.156657  
     393A      6.166746   394A      6.173382   395A      6.255180  
     396A      6.262587   397A      6.278763   398A      6.306752  
     399A      6.310717   400A      6.360351   401A      6.400227  
     402A      6.442340   403A      6.551382   404A      6.558312  
     405A      6.752326   406A      6.783707   407A      6.824638  
     408A      6.842609   409A      6.862011   410A      6.984436  
     411A     18.018992   412A     18.375418   413A     18.461381  
     414A     18.897152  

    Final Occupation by Irrep:
              A 
    DOCC [    17 ]

  Energy converged.

  @DF-RHF Final Energy:  -157.35244668855319

   => Energetics <=

    Nuclear Repulsion Energy =            131.8224838161955006
    One-Electron Energy =                -471.7405490476469367
    Two-Electron Energy =                 182.5656185428982781
    DFT Exchange-Correlation Energy =       0.0000000000000000
    Empirical Dispersion Energy =           0.0000000000000000
    PCM Polarization Energy =               0.0000000000000000
    EFP Energy =                            0.0000000000000000
    Total Energy =                       -157.3524466885531865



Properties will be evaluated at   0.000000,   0.000000,   0.000000 Bohr

Properties computed using the SCF density matrix

  Nuclear Dipole Moment: (a.u.)
     X:     0.0019      Y:    -0.0008      Z:    -0.0027

  Electronic Dipole Moment: (a.u.)
     X:    -0.0022      Y:     0.0004      Z:     0.0040

  Dipole Moment: (a.u.)
     X:    -0.0003      Y:    -0.0003      Z:     0.0013     Total:     0.0014

  Dipole Moment: (Debye)
     X:    -0.0006      Y:    -0.0009      Z:     0.0033     Total:     0.0034


*** tstop() called on gpu-1-6.local at Wed Jun 14 14:22:55 2017
Module time:
	user time   =      91.90 seconds =       1.53 minutes
	system time =       0.59 seconds =       0.01 minutes
	total time  =         93 seconds =       1.55 minutes
Total time:
	user time   =      91.90 seconds =       1.53 minutes
	system time =       0.59 seconds =       0.01 minutes
	total time  =         93 seconds =       1.55 minutes

  //>>>>>>>>>>>>>>>>>>>>>>>>>>>>>>>>>>>//
  //               DFMP2               //
  //<<<<<<<<<<<<<<<<<<<<<<<<<<<<<<<<<<<//

   => Loading Basis Set <=

    Name: (AUG-CC-PVTZ AUX)
    Role: RIFIT
    Keyword: DF_BASIS_MP2
    atoms 1-3, 5-6, 8-9, 11-13 entry H          line    29 file /cbio/jclab/home/chayas/anaconda/envs/py35/share/psi4/basis/aug-cc-pvtz-ri.gbs 
    atoms 4, 7, 10, 14         entry C          line   147 file /cbio/jclab/home/chayas/anaconda/envs/py35/share/psi4/basis/aug-cc-pvtz-ri.gbs 

	 --------------------------------------------------------
	                          DF-MP2                         
	      2nd-Order Density-Fitted Moller-Plesset Theory     
	              RMP2 Wavefunction,   1 Threads             
	                                                         
	        Rob Parrish, Justin Turney, Andy Simmonett,      
	           Ed Hohenstein, and C. David Sherrill          
	 --------------------------------------------------------

   => Auxiliary Basis Set <=

  Basis Set: (AUG-CC-PVTZ AUX)
    Blend: AUG-CC-PVTZ-RI
    Number of shells: 252
    Number of basis function: 884
    Number of Cartesian functions: 1094
    Spherical Harmonics?: true
    Max angular momentum: 4

	 --------------------------------------------------------
	                 NBF =   414, NAUX =   884
	 --------------------------------------------------------
	   CLASS    FOCC     OCC    AOCC    AVIR     VIR    FVIR
	   PAIRS       0      17      17     397     397       0
	 --------------------------------------------------------


         ------------------------------------------------------------
                                     CPHF                           
                                  Rob Parrish                       
         ------------------------------------------------------------

  ==> Geometry <==

    Molecular point group: c1
    Full point group: C1

    Geometry (in Angstrom), charge = 0, multiplicity = 1:

       Center              X                  Y                   Z               Mass       
    ------------   -----------------  -----------------  -----------------  -----------------
           H         -2.126793382205     1.696017352882    -0.475189264913     1.007825032070
           H         -1.891793382205     0.163017352882    -1.280189264913     1.007825032070
           H         -2.339793382205     0.204017352882     0.407810735087     1.007825032070
           C         -1.774793382205     0.693017352882    -0.357189264913    12.000000000000
           H          0.252206617795     1.349017352882    -0.635189264913     1.007825032070
           H         -0.185793382205     1.086017352882     1.035810735087     1.007825032070
           C         -0.285793382205     0.714017352882     0.037810735087    12.000000000000
           H         -0.251793382205    -1.348982647118     0.634810735087     1.007825032070
           H          0.187206617795    -1.085982647118    -1.035189264913     1.007825032070
           C          0.286206617795    -0.713982647118    -0.037189264913    12.000000000000
           H          2.171206617795    -1.684982647118     0.304810735087     1.007825032070
           H          1.874206617795    -0.320982647118     1.354810735087     1.007825032070
           H          2.313206617795    -0.057982647118    -0.315189264913     1.007825032070
           C          1.774206617795    -0.692982647118     0.356810735087    12.000000000000

  Nuclear repulsion =  131.822483816195501
  Reference energy  = -157.352446688553187

  ==> Basis Set <==

  Basis Set: AUG-CC-PVTZ
    Blend: AUG-CC-PVTZ
    Number of shells: 146
    Number of basis function: 414
    Number of Cartesian functions: 470
    Spherical Harmonics?: true
    Max angular momentum: 3

  ==> CGRSolver (by Rob Parrish) <==

   Number of roots    =         1
   Preconditioning    =    JACOBI
   Convergence cutoff =     1E-06
   Maximum iterations =       100

  ==> CPHFRHamiltonian (by Rob Parrish) <== 

  ==> DFJK: Density-Fitted J/K Matrices <==

    J tasked:                  Yes
    K tasked:                  Yes
    wK tasked:                  No
    OpenMP threads:              1
    Integrals threads:           1
    Memory (MB):              3576
    Algorithm:                Core
    Integral Cache:           NONE
    Schwarz Cutoff:          1E-12
    Fitting Condition:       1E-12

   => Auxiliary Basis Set <=

  Basis Set: (AUG-CC-PVTZ AUX)
    Blend: AUG-CC-PVTZ-JKFIT
    Number of shells: 260
    Number of basis function: 876
    Number of Cartesian functions: 1074
    Spherical Harmonics?: true
    Max angular momentum: 4

  ==> CPHF Iterations <==

  => Iterations <=

             Iter  Converged  Remaining    Residual
  CGR           1          0          1   8.154E-02
  CGR           2          0          1   1.303E-02
  CGR           3          0          1   3.410E-03
  CGR           4          0          1   8.041E-04
  CGR           5          0          1   1.179E-04
  CGR           6          0          1   2.102E-05
  CGR           7          0          1   3.638E-06
  CGR           8          1          0   7.952E-07

    CGRSolver converged.

  ==> DFCorrGrad: Density-Fitted Correlated Gradients <==

    OpenMP threads:              1
    Integrals threads:           1
    Memory (MB):              3576
    Schwarz Cutoff:          0E+00
    Fitting Condition:       1E-12

   => Auxiliary Basis Set <=

  Basis Set: (AUG-CC-PVTZ AUX)
    Blend: AUG-CC-PVTZ-JKFIT
    Number of shells: 260
    Number of basis function: 876
    Number of Cartesian functions: 1074
    Spherical Harmonics?: true
    Max angular momentum: 4

	-----------------------------------------------------------
	 ==================> DF-MP2 Energies <==================== 
	-----------------------------------------------------------
	 Reference Energy          =    -157.3524466885531865 [Eh]
	 Singles Energy            =      -0.0000000000000001 [Eh]
	 Same-Spin Energy          =      -0.1653747551437539 [Eh]
	 Opposite-Spin Energy      =      -0.6387045351410950 [Eh]
	 Correlation Energy        =      -0.8040792902848491 [Eh]
	 Total Energy              =    -158.1565259788380331 [Eh]
	-----------------------------------------------------------
	 ================> DF-SCS-MP2 Energies <================== 
	-----------------------------------------------------------
	 SCS Same-Spin Scale       =       0.3333333333333333 [-]
	 SCS Opposite-Spin Scale   =       1.2000000000000000 [-]
	 SCS Same-Spin Energy      =      -0.0551249183812513 [Eh]
	 SCS Opposite-Spin Energy  =      -0.7664454421693140 [Eh]
	 SCS Correlation Energy    =      -0.8215703605505654 [Eh]
	 SCS Total Energy          =    -158.1740170491037532 [Eh]
	-----------------------------------------------------------


  -Total Gradient:
     Atom            X                  Y                   Z
    ------   -----------------  -----------------  -----------------
       1        0.008234743669    -0.010172223112     0.001752751518
       2        0.003293945854     0.004816401513     0.009842214671
       3        0.008348338081     0.005717308655    -0.007095303983
       4       -0.024999678149    -0.005800986424    -0.007008058451
       5       -0.007920648000    -0.007822073168     0.006252721343
       6       -0.003340521591    -0.006014402388    -0.011240185830
       7        0.021380481248     0.030935773182     0.011548111060
       8        0.008034607197     0.008644003673    -0.006353111949
       9        0.003284694457     0.005408521085     0.011536919254
      10       -0.021679254698    -0.031253293828    -0.011297010410
      11       -0.008403656006     0.009996194466    -0.000652606734
      12       -0.003303855550    -0.003987222053    -0.010995224306
      13       -0.007582113897    -0.006591142642     0.006228812607
      14        0.024652917386     0.006123141040     0.007479971208


*** tstop() called on gpu-1-6.local at Wed Jun 14 14:28:49 2017
Module time:
	user time   =     442.45 seconds =       7.37 minutes
	system time =       4.17 seconds =       0.07 minutes
	total time  =        447 seconds =       7.45 minutes
Total time:
	user time   =     442.45 seconds =       7.37 minutes
	system time =       4.17 seconds =       0.07 minutes
	total time  =        447 seconds =       7.45 minutes

			-----------------------------------------
			 OPTKING 2.0: for geometry optimizations 
			  - R.A. King,  Bethel University        
			-----------------------------------------

	Internal coordinates to be generated automatically.
	Detected frag 1 with atoms:  1 2 3 4 5 6 7 8 9 10 11 12 13 14
	---Fragment 1 Bond Connectivity---
	 1 : 4
	 2 : 4
	 3 : 4
	 4 : 1 2 3 7
	 5 : 7
	 6 : 7
	 7 : 4 5 6 10
	 8 : 10
	 9 : 10
	 10 : 7 8 9 14
	 11 : 14
	 12 : 14
	 13 : 14
	 14 : 10 11 12 13

	Assuming in current code that numbering for constraints corresponds to unified fragment.
	Fixed dihedral atom list: 
	    10     7     4     3
	---Fragment 1 Geometry and Gradient---
	 H          -4.0190570336        3.2050083136       -0.8979775720
	 H          -3.5749713924        0.3080581519       -2.4192071089
	 H          -4.4215686999        0.3855369233        0.7706506034
	 C          -3.3538734348        1.3096130023       -0.6749898883
	 H           0.4766014365        2.5492733455       -1.2003337532
	 H          -0.3510986097        2.0522753725        1.9573986148
	 C          -0.5400712230        1.3492972511        0.0714519342
	 H          -0.4758205344       -2.5492077611        1.1996184355
	 H           0.3537692379       -2.0522097881       -1.9562242064
	 C           0.5408521251       -1.3492316667       -0.0702775258
	 H           4.1029858855       -3.1841557417        0.5760088117
	 H           3.5417372241       -0.6065692965        2.5602212512
	 H           4.3713269964       -0.1095713235       -0.5956213907
	 C           3.3527646108       -1.3095474179        0.6742745706
	             0.0082347437       -0.0101722231        0.0017527515
	             0.0032939459        0.0048164015        0.0098422147
	             0.0083483381        0.0057173087       -0.0070953040
	            -0.0249996781       -0.0058009864       -0.0070080585
	            -0.0079206480       -0.0078220732        0.0062527213
	            -0.0033405216       -0.0060144024       -0.0112401858
	             0.0213804812        0.0309357732        0.0115481111
	             0.0080346072        0.0086440037       -0.0063531119
	             0.0032846945        0.0054085211        0.0115369193
	            -0.0216792547       -0.0312532938       -0.0112970104
	            -0.0084036560        0.0099961945       -0.0006526067
	            -0.0033038555       -0.0039872221       -0.0109952243
	            -0.0075821139       -0.0065911426        0.0062288126
	             0.0246529174        0.0061231410        0.0074799712

	Previous optimization step data not found.  Starting new optimization.

	---Fragment 1 Intrafragment Coordinates---
	 - Coordinate -           - BOHR/RAD -       - ANG/DEG -
	 R(1,4)           =         2.021068	       1.069503
	 R(2,4)           =         2.023435	       1.070756
	 R(3,4)           =         2.020833	       1.069379
	 R(4,7)           =         2.911397	       1.540645
	 R(5,7)           =         2.022623	       1.070326
	 R(6,7)           =         2.021555	       1.069761
	 R(7,10)          =         2.910419	       1.540128
	 R(8,10)          =         2.021436	       1.069698
	 R(9,10)          =         2.021379	       1.069668
	 R(10,14)         =         2.909087	       1.539422
	 R(11,14)         =         2.021545	       1.069756
	 R(12,14)         =         2.021555	       1.069761
	 R(13,14)         =         2.022387	       1.070201
	 B(1,4,2)         =         1.910417	     109.458826
	 B(1,4,3)         =         1.911210	     109.504292
	 B(1,4,7)         =         1.910912	     109.487208
	 B(2,4,3)         =         1.909836	     109.425521
	 B(2,4,7)         =         1.910661	     109.472810
	 B(3,4,7)         =         1.910763	     109.478646
	 B(4,7,5)         =         1.909937	     109.431343
	 B(4,7,6)         =         1.911630	     109.528316
	 B(4,7,10)        =         1.911154	     109.501062
	 B(5,7,6)         =         1.910605	     109.469614
	 B(5,7,10)        =         1.910047	     109.437654
	 B(6,7,10)        =         1.910425	     109.459295
	 B(7,10,8)        =         1.910303	     109.452301
	 B(7,10,9)        =         1.910824	     109.482155
	 B(7,10,14)       =         1.911213	     109.504437
	 B(8,10,9)        =         1.910417	     109.458846
	 B(8,10,14)       =         1.910766	     109.478806
	 B(9,10,14)       =         1.910276	     109.450772
	 B(10,14,11)      =         1.910943	     109.488965
	 B(10,14,12)      =         1.911204	     109.503926
	 B(10,14,13)      =         1.911557	     109.524173
	 B(11,14,12)      =         1.910410	     109.458432
	 B(11,14,13)      =         1.910054	     109.438058
	 B(12,14,13)      =         1.909629	     109.413709
	 D(1,4,7,5)       =        -0.872878	     -50.012200
	 D(1,4,7,6)       =         1.221667	      69.996352
	 D(1,4,7,10)      =        -2.966448	    -169.964940
	 D(2,4,7,5)       =         1.221440	      69.983384
	 D(2,4,7,6)       =        -2.967200	    -170.008064
	 D(2,4,7,10)      =        -0.872130	     -49.969357
	 D(3,4,7,5)       =        -2.968230	    -170.067063
	 D(3,4,7,6)       =        -0.873686	     -50.058511
	 D(3,4,7,10)      =         1.221385	      69.980196
	 D(4,7,10,8)      =        -1.047368	     -60.009777
	 D(4,7,10,9)      =         1.046677	      59.970178
	 D(4,7,10,14)     =         3.141107	     179.972182
	 D(5,7,10,8)      =        -3.140871	    -179.958653
	 D(5,7,10,9)      =        -1.046826	     -59.978698
	 D(5,7,10,14)     =         1.047604	      60.023306
	 D(6,7,10,8)      =         1.048439	      60.071149
	 D(6,7,10,9)      =        -3.140701	    -179.948896
	 D(6,7,10,14)     =        -1.046271	     -59.946893
	 D(7,10,14,11)    =         3.141408	     179.989448
	 D(7,10,14,12)    =         1.046747	      59.974196
	 D(7,10,14,13)    =        -1.047335	     -60.007849
	 D(8,10,14,11)    =         1.046982	      59.987626
	 D(8,10,14,12)    =        -1.047680	     -60.027626
	 D(8,10,14,13)    =         3.141424	     179.990329
	 D(9,10,14,11)    =        -1.047012	     -59.989345
	 D(9,10,14,12)    =         3.141512	     179.995403
	 D(9,10,14,13)    =         1.047431	      60.013359

	Current energy   :      -158.1565259788

	Generating empirical Hessian (Schlegel '84) for each fragment.
	Adding user-defined constraint: Fragment 1; Coordinate 46:
		Value =     1.221385; Fixed value    =     1.221730
		Force =     0.000173; Force constant =     0.500000
	Removing off-diagonal coupling between coordinate 46 and others.
	Taking RFO optimization step.
	Going to follow RFO solution 1.
	Using RFO vector 1.

	Determining step-restricting scale parameter for RS-RFO.
	Maximum step size allowed    0.10000

	 Iter      |step|        alpha        rfo_root  
	------------------------------------------------
	    0     0.18291       1.00000           1
	    1     0.14388       7.10433           1
	    2     0.11670      19.09529           1
	    3     0.10355      30.32928           1
	    4     0.10021      34.13797           1
	    5     0.10000      34.39679           1
	------------------------------------------------
	Norm of target step-size    0.10000
	Projected energy change by RFO approximation:        -0.0048168039

	Back-transformation to cartesian coordinates...
	Could not converge backtransformation.
	Using first guess instead.

	--- Internal Coordinate Step in ANG or DEG, aJ/ANG or AJ/DEG ---
	 ---------------------------------------------------------------------------
	   Coordinate                Previous        Force       Change         New 
	   ----------                --------       ------       ------       ------
	    1 R(1,4)          =      1.069503     0.102517     0.012637     1.082140
	    2 R(2,4)          =      1.070756     0.092504     0.011476     1.082232
	    3 R(3,4)          =      1.069379     0.099696     0.012295     1.081674
	    4 R(4,7)          =      1.540645    -0.046699    -0.006840     1.533805
	    5 R(5,7)          =      1.070326     0.103425     0.012739     1.083065
	    6 R(6,7)          =      1.069761     0.106196     0.013063     1.082823
	    7 R(7,10)         =      1.540128    -0.075405    -0.010962     1.529165
	    8 R(8,10)         =      1.069698     0.108450     0.013337     1.083035
	    9 R(9,10)         =      1.069668     0.106682     0.013118     1.082786
	   10 R(10,14)        =      1.539422    -0.047679    -0.006970     1.532452
	   11 R(11,14)        =      1.069756     0.101803     0.012560     1.082315
	   12 R(12,14)        =      1.069761     0.098478     0.012158     1.081919
	   13 R(13,14)        =      1.070201     0.095905     0.011853     1.082054
	   14 B(1,4,2)        =    109.458826    -0.000248    -0.582405   108.876421
	   15 B(1,4,3)        =    109.504292    -0.000275    -0.682903   108.821389
	   16 B(1,4,7)        =    109.487208     0.000410     0.994566   110.481773
	   17 B(2,4,3)        =    109.425521    -0.000166    -0.407162   109.018359
	   18 B(2,4,7)        =    109.472810     0.000124     0.304074   109.776884
	   19 B(3,4,7)        =    109.478646     0.000153     0.356507   109.835153
	   20 B(4,7,5)        =    109.431343    -0.000107    -0.109930   109.321413
	   21 B(4,7,6)        =    109.528316    -0.000130    -0.176221   109.352095
	   22 B(4,7,10)       =    109.501062     0.000643     1.402308   110.903371
	   23 B(5,7,6)        =    109.469614     0.000008    -0.246606   109.223008
	   24 B(5,7,10)       =    109.437654    -0.000211    -0.471853   108.965801
	   25 B(6,7,10)       =    109.459295    -0.000203    -0.408435   109.050860
	   26 B(7,10,8)       =    109.452301    -0.000193    -0.400792   109.051509
	   27 B(7,10,9)       =    109.482155    -0.000217    -0.472159   109.009997
	   28 B(7,10,14)      =    109.504437     0.000637     1.388598   110.893035
	   29 B(8,10,9)       =    109.458846     0.000011    -0.235369   109.223477
	   30 B(8,10,14)      =    109.478806    -0.000127    -0.167638   109.311168
	   31 B(9,10,14)      =    109.450772    -0.000110    -0.123048   109.327724
	   32 B(10,14,11)     =    109.488965     0.000412     1.018707   110.507672
	   33 B(10,14,12)     =    109.503926     0.000131     0.300693   109.804619
	   34 B(10,14,13)     =    109.524173     0.000112     0.254513   109.778686
	   35 B(11,14,12)     =    109.458432    -0.000249    -0.581851   108.876581
	   36 B(11,14,13)     =    109.438058    -0.000242    -0.566330   108.871728
	   37 B(12,14,13)     =    109.413709    -0.000165    -0.443434   108.970275
	   38 D(1,4,7,5)      =    -50.012200     0.000010     0.133468   -49.878731
	   39 D(1,4,7,6)      =     69.996352    -0.000021    -0.341658    69.654694
	   40 D(1,4,7,10)     =   -169.964940    -0.000006    -0.084361  -170.049301
	   41 D(2,4,7,5)      =     69.983384     0.000016     0.224832    70.208215
	   42 D(2,4,7,6)      =   -170.008064    -0.000015    -0.250295  -170.258359
	   43 D(2,4,7,10)     =    -49.969357    -0.000000     0.007002   -49.962355
	   44 D(3,4,7,5)      =   -170.067063     0.000008     0.132366  -169.934698
	   45 D(3,4,7,6)      =    -50.058511    -0.000023    -0.342761   -50.401273
	   46 D(3,4,7,10)     =     69.980196    -0.000008    -0.085464    69.894732
	   47 D(4,7,10,8)     =    -60.009777     0.000030     0.445496   -59.564281
	   48 D(4,7,10,9)     =     59.970178    -0.000024    -0.364496    59.605682
	   49 D(4,7,10,14)    =    179.972182     0.000004     0.045385   180.017567
	   50 D(5,7,10,8)     =   -179.958653    -0.000000     0.012350  -179.946303
	   51 D(5,7,10,9)     =    -59.978698    -0.000055    -0.797642   -60.776340
	   52 D(5,7,10,14)    =     60.023306    -0.000027    -0.387761    59.635545
	   53 D(6,7,10,8)     =     60.071149     0.000055     0.839494    60.910643
	   54 D(6,7,10,9)     =   -179.948896     0.000001     0.029502  -179.919395
	   55 D(6,7,10,14)    =    -59.946893     0.000029     0.439383   -59.507510
	   56 D(7,10,14,11)   =    179.989448     0.000002     0.024814   180.014262
	   57 D(7,10,14,12)   =     59.974196    -0.000005    -0.081233    59.892962
	   58 D(7,10,14,13)   =    -60.007849     0.000008     0.120763   -59.887086
	   59 D(8,10,14,11)   =     59.987626    -0.000016    -0.237192    59.750434
	   60 D(8,10,14,12)   =    -60.027626    -0.000022    -0.343239   -60.370865
	   61 D(8,10,14,13)   =    179.990329    -0.000010    -0.141243   179.849086
	   62 D(9,10,14,11)   =    -59.989345     0.000015     0.226609   -59.762735
	   63 D(9,10,14,12)   =    179.995403     0.000008     0.120562   180.115965
	   64 D(9,10,14,13)   =     60.013359     0.000020     0.322558    60.335917
	 ---------------------------------------------------------------------------
	Successfully symmetrized geometry.
	 Forces used to impose fixed constraints are not included.
	  Forces zeroed: 46 

  ==> Convergence Check <==

  Measures of convergence in internal coordinates in au.
  Criteria marked as inactive (o), active & met (*), and active & unmet ( ).
  --------------------------------------------------------------------------------------------- ~
   Step     Total Energy     Delta E     MAX Force     RMS Force      MAX Disp      RMS Disp    ~
  --------------------------------------------------------------------------------------------- ~
    Convergence Criteria    1.00e-06 *    3.00e-04 *             o    1.20e-03 *             o  ~
  --------------------------------------------------------------------------------------------- ~
      1    -158.15652598   -1.58e+02      1.32e-02      5.62e-03 o    2.52e-02      1.25e-02 o  ~
  ---------------------------------------------------------------------------------------------

	Writing optimization data to binary file.
	Structure for next step:
	Cartesian Geometry (in Angstrom)
	    H    -2.1417172772   1.7095406628  -0.4769794776
	    H    -1.9072497507   0.1658654639  -1.2906924229
	    H    -2.3570031490   0.2065081918   0.4123218252
	    C    -1.7769763279   0.6977820600  -0.3572477389
	    H     0.2527835842   1.3471312513  -0.6458465521
	    H    -0.1904136390   1.0830056719   1.0428239362
	    C    -0.2938002336   0.7046864182   0.0335210866
	    H    -0.2515147912  -1.3489800021   0.6443935984
	    H     0.1922891570  -1.0821752180  -1.0436439684
	    C     0.2947259025  -0.7050823205  -0.0338259288
	    H     2.1866085786  -1.6983225977   0.3070407077
	    H     1.8875666036  -0.3241715174   1.3662532212
	    H     2.3301229598  -0.0585682578  -0.3178256780
	    C     1.7764710322  -0.6979768659   0.3570576825
			--------------------------
			 OPTKING Finished Execution 
			--------------------------

    Structure for next step:
    Molecular point group: c1
    Full point group: C1

    Geometry (in Angstrom), charge = 0, multiplicity = 1:

    H           -2.141829681983     1.709665600266    -0.476839830538
    H           -1.907362155494     0.165990401436    -1.290552775901
    H           -2.357115553800     0.206633129270     0.412461472270
    C           -1.777088732741     0.697906997515    -0.357108091867
    H            0.252671179378     1.347256188828    -0.645706905031
    H           -0.190526043790     1.083130609357     1.042963583189
    C           -0.293912638423     0.704811355691     0.033660733607
    H           -0.251627195992    -1.348855064577     0.644533245462
    H            0.192176752168    -1.082050280506    -1.043504321374
    C            0.294613497707    -0.704957382994    -0.033686281772
    H            2.186496173760    -1.698197660242     0.307180354696
    H            1.887454198766    -0.324046579907     1.366392868257
    H            2.330010555025    -0.058443320337    -0.317686030936
    C            1.776358627379    -0.697851928402     0.357197329527

gradient() will perform analytic gradient computation.

*** tstart() called on gpu-1-6.local
*** at Wed Jun 14 14:28:50 2017

    SCF Algorithm Type (re)set to DF.

*** tstart() called on gpu-1-6.local
*** at Wed Jun 14 14:28:50 2017

   => Loading Basis Set <=

    Name: AUG-CC-PVTZ
    Role: ORBITAL
    Keyword: BASIS
    atoms 1-3, 5-6, 8-9, 11-13 entry H          line    34 file /cbio/jclab/home/chayas/anaconda/envs/py35/share/psi4/basis/aug-cc-pvtz.gbs 
    atoms 4, 7, 10, 14         entry C          line   221 file /cbio/jclab/home/chayas/anaconda/envs/py35/share/psi4/basis/aug-cc-pvtz.gbs 


         ---------------------------------------------------------
                                   SCF
            by Justin Turney, Rob Parrish, and Andy Simmonett
                              RHF Reference
                        1 Threads,   4768 MiB Core
         ---------------------------------------------------------

  ==> Geometry <==

    Molecular point group: c1
    Full point group: C1

    Geometry (in Angstrom), charge = 0, multiplicity = 1:

       Center              X                  Y                   Z               Mass       
    ------------   -----------------  -----------------  -----------------  -----------------
           H         -2.141829681983     1.709665600266    -0.476839830538     1.007825032070
           H         -1.907362155494     0.165990401436    -1.290552775901     1.007825032070
           H         -2.357115553800     0.206633129270     0.412461472270     1.007825032070
           C         -1.777088732741     0.697906997515    -0.357108091867    12.000000000000
           H          0.252671179378     1.347256188828    -0.645706905031     1.007825032070
           H         -0.190526043790     1.083130609357     1.042963583189     1.007825032070
           C         -0.293912638423     0.704811355691     0.033660733607    12.000000000000
           H         -0.251627195992    -1.348855064577     0.644533245462     1.007825032070
           H          0.192176752168    -1.082050280506    -1.043504321374     1.007825032070
           C          0.294613497707    -0.704957382994    -0.033686281772    12.000000000000
           H          2.186496173760    -1.698197660242     0.307180354696     1.007825032070
           H          1.887454198766    -0.324046579907     1.366392868257     1.007825032070
           H          2.330010555025    -0.058443320337    -0.317686030936     1.007825032070
           C          1.776358627379    -0.697851928402     0.357197329527    12.000000000000

  Running in c1 symmetry.

  Rotational constants: A =      0.77657  B =      0.12366  C =      0.11587 [cm^-1]
  Rotational constants: A =  23280.92193  B =   3707.22515  C =   3473.58432 [MHz]
  Nuclear repulsion =  131.460141976365463

  Charge       = 0
  Multiplicity = 1
  Electrons    = 34
  Nalpha       = 17
  Nbeta        = 17

  ==> Algorithm <==

  SCF Algorithm Type is DF.
  DIIS enabled.
  MOM disabled.
  Fractional occupation disabled.
  Guess Type is READ.
  Energy threshold   = 1.00e-10
  Density threshold  = 1.00e-10
  Integral threshold = 0.00e+00

  ==> Primary Basis <==

  Basis Set: AUG-CC-PVTZ
    Blend: AUG-CC-PVTZ
    Number of shells: 146
    Number of basis function: 414
    Number of Cartesian functions: 470
    Spherical Harmonics?: true
    Max angular momentum: 3

   => Loading Basis Set <=

    Name: (AUG-CC-PVTZ AUX)
    Role: JKFIT
    Keyword: DF_BASIS_SCF
    atoms 1-3, 5-6, 8-9, 11-13 entry H          line    69 file /cbio/jclab/home/chayas/anaconda/envs/py35/share/psi4/basis/aug-cc-pvtz-jkfit.gbs 
    atoms 4, 7, 10, 14         entry C          line   161 file /cbio/jclab/home/chayas/anaconda/envs/py35/share/psi4/basis/aug-cc-pvtz-jkfit.gbs 

  Reading orbitals from file 180, no projection.

  ==> Pre-Iterations <==

   -------------------------------------------------------
    Irrep   Nso     Nmo     Nalpha   Nbeta   Ndocc  Nsocc
   -------------------------------------------------------
     A        414     414       0       0       0       0
   -------------------------------------------------------
    Total     414     414      17      17      17       0
   -------------------------------------------------------

  ==> Integral Setup <==

  ==> DFJK: Density-Fitted J/K Matrices <==

    J tasked:                  Yes
    K tasked:                  Yes
    wK tasked:                  No
    OpenMP threads:              1
    Integrals threads:           1
    Memory (MB):              3576
    Algorithm:                Core
    Integral Cache:           NONE
    Schwarz Cutoff:          1E-12
    Fitting Condition:       1E-12

   => Auxiliary Basis Set <=

  Basis Set: (AUG-CC-PVTZ AUX)
    Blend: AUG-CC-PVTZ-JKFIT
    Number of shells: 260
    Number of basis function: 876
    Number of Cartesian functions: 1074
    Spherical Harmonics?: true
    Max angular momentum: 4

  Minimum eigenvalue in the overlap matrix is 8.2370028843E-06.
  Using Symmetric Orthogonalization.

  SCF Guess: Orbitals guess was supplied from a previous computation.

  ==> Iterations <==

                           Total Energy        Delta E     RMS |[F,P]|

   @DF-RHF iter   0:  -157.27775197947153   -1.57278e+02   1.26301e-04 
   @DF-RHF iter   1:  -157.35475073234255   -7.69988e-02   5.20153e-05 
   @DF-RHF iter   2:  -157.35502745092538   -2.76719e-04   2.69092e-05 DIIS
   @DF-RHF iter   3:  -157.35508607703719   -5.86261e-05   2.89100e-06 DIIS
   @DF-RHF iter   4:  -157.35508754580911   -1.46877e-06   7.74185e-07 DIIS
   @DF-RHF iter   5:  -157.35508763443659   -8.86275e-08   2.57581e-07 DIIS
   @DF-RHF iter   6:  -157.35508764444361   -1.00070e-08   4.18967e-08 DIIS
   @DF-RHF iter   7:  -157.35508764483654   -3.92930e-10   6.03819e-09 DIIS
   @DF-RHF iter   8:  -157.35508764484530   -8.75389e-12   1.05351e-09 DIIS
   @DF-RHF iter   9:  -157.35508764484410    1.19371e-12   2.45924e-10 DIIS
   @DF-RHF iter  10:  -157.35508764484445   -3.41061e-13   5.05817e-11 DIIS

  ==> Post-Iterations <==

    Orbital Energies (a.u.)
    -----------------------

    Doubly Occupied:                                                      

       1A    -11.210305     2A    -11.209693     3A    -11.203784  
       4A    -11.203772     5A     -1.071385     6A     -0.980005  
       7A     -0.859961     8A     -0.789116     9A     -0.645414  
      10A     -0.585003    11A     -0.572170    12A     -0.571882  
      13A     -0.512879    14A     -0.499725    15A     -0.470254  
      16A     -0.465398    17A     -0.449339  

    Virtual:                                                              

      18A      0.032277    19A      0.036925    20A      0.039683  
      21A      0.040908    22A      0.056580    23A      0.058483  
      24A      0.059594    25A      0.061344    26A      0.081876  
      27A      0.084995    28A      0.096712    29A      0.112293  
      30A      0.123153    31A      0.130775    32A      0.135483  
      33A      0.141676    34A      0.143753    35A      0.146789  
      36A      0.148203    37A      0.159563    38A      0.159730  
      39A      0.168187    40A      0.170543    41A      0.202306  
      42A      0.210310    43A      0.211623    44A      0.229216  
      45A      0.248338    46A      0.249600    47A      0.250489  
      48A      0.269010    49A      0.273099    50A      0.281057  
      51A      0.281919    52A      0.316238    53A      0.318581  
      54A      0.331208    55A      0.337274    56A      0.339341  
      57A      0.347457    58A      0.356877    59A      0.357406  
      60A      0.359133    61A      0.373456    62A      0.373998  
      63A      0.384226    64A      0.388174    65A      0.390280  
      66A      0.391738    67A      0.395291    68A      0.402116  
      69A      0.406638    70A      0.413619    71A      0.424130  
      72A      0.429209    73A      0.442758    74A      0.445877  
      75A      0.453987    76A      0.459739    77A      0.463703  
      78A      0.467543    79A      0.473748    80A      0.475754  
      81A      0.483656    82A      0.490048    83A      0.497832  
      84A      0.505388    85A      0.505607    86A      0.510228  
      87A      0.522465    88A      0.526300    89A      0.528442  
      90A      0.537333    91A      0.547069    92A      0.563309  
      93A      0.565162    94A      0.575026    95A      0.587116  
      96A      0.595888    97A      0.598964    98A      0.612540  
      99A      0.625071   100A      0.635048   101A      0.639482  
     102A      0.655813   103A      0.681975   104A      0.688373  
     105A      0.702666   106A      0.703384   107A      0.764085  
     108A      0.777876   109A      0.796336   110A      0.815665  
     111A      0.823052   112A      0.826908   113A      0.836684  
     114A      0.842507   115A      0.845611   116A      0.857284  
     117A      0.861594   118A      0.863786   119A      0.885234  
     120A      0.889937   121A      0.896299   122A      0.900319  
     123A      0.908024   124A      0.919565   125A      0.922083  
     126A      0.931449   127A      0.938114   128A      0.943612  
     129A      0.948978   130A      0.957938   131A      0.963888  
     132A      0.967232   133A      0.982482   134A      0.989545  
     135A      0.995404   136A      1.008103   137A      1.011416  
     138A      1.030318   139A      1.047606   140A      1.055676  
     141A      1.069654   142A      1.077752   143A      1.094649  
     144A      1.102942   145A      1.109138   146A      1.125227  
     147A      1.128893   148A      1.132184   149A      1.137428  
     150A      1.158314   151A      1.162364   152A      1.166072  
     153A      1.170249   154A      1.194430   155A      1.201203  
     156A      1.213852   157A      1.222813   158A      1.241263  
     159A      1.250595   160A      1.252620   161A      1.257340  
     162A      1.262313   163A      1.272054   164A      1.277630  
     165A      1.286151   166A      1.300963   167A      1.310047  
     168A      1.326974   169A      1.338126   170A      1.351830  
     171A      1.357844   172A      1.372494   173A      1.393329  
     174A      1.424874   175A      1.429103   176A      1.435073  
     177A      1.458882   178A      1.482740   179A      1.494469  
     180A      1.499321   181A      1.526517   182A      1.531018  
     183A      1.549191   184A      1.556789   185A      1.573898  
     186A      1.583613   187A      1.594600   188A      1.613982  
     189A      1.626060   190A      1.633252   191A      1.641381  
     192A      1.643480   193A      1.681606   194A      1.685570  
     195A      1.698963   196A      1.699716   197A      1.708120  
     198A      1.711184   199A      1.733864   200A      1.741112  
     201A      1.747907   202A      1.758643   203A      1.760320  
     204A      1.774770   205A      1.780394   206A      1.785394  
     207A      1.791735   208A      1.797496   209A      1.826097  
     210A      1.847497   211A      1.858865   212A      1.867961  
     213A      1.884920   214A      1.894566   215A      1.917160  
     216A      1.920730   217A      1.959426   218A      1.970500  
     219A      1.973835   220A      1.981375   221A      1.988161  
     222A      1.992203   223A      2.026931   224A      2.043202  
     225A      2.054462   226A      2.065672   227A      2.093773  
     228A      2.100587   229A      2.138818   230A      2.146150  
     231A      2.155198   232A      2.177751   233A      2.189030  
     234A      2.209361   235A      2.241543   236A      2.251558  
     237A      2.254397   238A      2.285026   239A      2.299734  
     240A      2.311468   241A      2.324154   242A      2.327446  
     243A      2.331850   244A      2.342245   245A      2.373506  
     246A      2.379713   247A      2.430522   248A      2.452513  
     249A      2.472817   250A      2.474723   251A      2.506154  
     252A      2.537174   253A      2.605535   254A      2.613170  
     255A      2.651369   256A      2.677200   257A      2.702004  
     258A      2.897581   259A      2.910801   260A      3.026786  
     261A      3.240099   262A      3.252953   263A      3.267661  
     264A      3.388719   265A      3.409216   266A      3.426452  
     267A      3.455988   268A      3.465383   269A      3.474684  
     270A      3.482273   271A      3.516491   272A      3.533341  
     273A      3.571748   274A      3.579824   275A      3.593827  
     276A      3.602818   277A      3.632748   278A      3.657894  
     279A      3.684539   280A      3.684892   281A      3.717805  
     282A      3.723346   283A      3.730063   284A      3.739492  
     285A      3.749828   286A      3.761262   287A      3.789846  
     288A      3.791987   289A      3.809304   290A      3.816151  
     291A      3.847198   292A      3.856486   293A      3.878595  
     294A      3.886663   295A      3.911796   296A      3.916973  
     297A      3.927259   298A      3.939023   299A      3.964521  
     300A      3.991956   301A      3.997804   302A      4.001394  
     303A      4.014353   304A      4.018992   305A      4.039997  
     306A      4.049507   307A      4.057886   308A      4.063580  
     309A      4.133609   310A      4.179343   311A      4.201419  
     312A      4.211020   313A      4.219008   314A      4.231766  
     315A      4.239745   316A      4.260768   317A      4.269208  
     318A      4.280074   319A      4.293084   320A      4.311738  
     321A      4.340182   322A      4.359536   323A      4.361021  
     324A      4.397771   325A      4.411626   326A      4.418683  
     327A      4.525407   328A      4.535715   329A      4.564738  
     330A      4.580262   331A      4.624452   332A      4.647737  
     333A      4.672110   334A      4.691720   335A      4.710288  
     336A      4.724350   337A      4.725504   338A      4.744061  
     339A      4.757054   340A      4.781037   341A      4.790523  
     342A      4.834896   343A      4.854455   344A      4.867563  
     345A      4.873003   346A      4.887921   347A      4.910095  
     348A      4.938101   349A      4.951512   350A      4.991802  
     351A      5.031574   352A      5.046258   353A      5.052066  
     354A      5.077648   355A      5.111980   356A      5.163539  
     357A      5.177570   358A      5.192208   359A      5.201801  
     360A      5.221155   361A      5.235155   362A      5.243843  
     363A      5.248650   364A      5.273869   365A      5.293123  
     366A      5.342411   367A      5.383516   368A      5.395207  
     369A      5.412247   370A      5.420032   371A      5.436535  
     372A      5.451901   373A      5.462284   374A      5.479822  
     375A      5.545997   376A      5.568022   377A      5.595215  
     378A      5.609187   379A      5.657628   380A      5.674658  
     381A      5.695938   382A      5.730737   383A      5.732890  
     384A      5.759535   385A      5.817174   386A      5.826614  
     387A      5.864744   388A      5.890319   389A      5.914039  
     390A      6.001900   391A      6.049189   392A      6.111209  
     393A      6.130616   394A      6.150950   395A      6.218854  
     396A      6.223514   397A      6.237952   398A      6.257068  
     399A      6.272823   400A      6.328439   401A      6.384192  
     402A      6.388284   403A      6.544361   404A      6.550950  
     405A      6.739804   406A      6.778398   407A      6.821920  
     408A      6.836895   409A      6.858270   410A      6.987652  
     411A     17.928395   412A     18.191587   413A     18.257669  
     414A     18.847090  

    Final Occupation by Irrep:
              A 
    DOCC [    17 ]

  Energy converged.

  @DF-RHF Final Energy:  -157.35508764484445

   => Energetics <=

    Nuclear Repulsion Energy =            131.4601419763654633
    One-Electron Energy =                -471.0302877677451079
    Two-Electron Energy =                 182.2150581465352275
    DFT Exchange-Correlation Energy =       0.0000000000000000
    Empirical Dispersion Energy =           0.0000000000000000
    PCM Polarization Energy =               0.0000000000000000
    EFP Energy =                            0.0000000000000000
    Total Energy =                       -157.3550876448444455



Properties will be evaluated at   0.000000,   0.000000,   0.000000 Bohr

Properties computed using the SCF density matrix

  Nuclear Dipole Moment: (a.u.)
     X:     0.0003      Y:     0.0010      Z:    -0.0007

  Electronic Dipole Moment: (a.u.)
     X:    -0.0005      Y:    -0.0011      Z:     0.0017

  Dipole Moment: (a.u.)
     X:    -0.0002      Y:    -0.0001      Z:     0.0009     Total:     0.0010

  Dipole Moment: (Debye)
     X:    -0.0005      Y:    -0.0003      Z:     0.0024     Total:     0.0025


*** tstop() called on gpu-1-6.local at Wed Jun 14 14:30:02 2017
Module time:
	user time   =      71.73 seconds =       1.20 minutes
	system time =       0.48 seconds =       0.01 minutes
	total time  =         72 seconds =       1.20 minutes
Total time:
	user time   =     514.26 seconds =       8.57 minutes
	system time =       4.74 seconds =       0.08 minutes
	total time  =        520 seconds =       8.67 minutes

  //>>>>>>>>>>>>>>>>>>>>>>>>>>>>>>>>>>>//
  //               DFMP2               //
  //<<<<<<<<<<<<<<<<<<<<<<<<<<<<<<<<<<<//

   => Loading Basis Set <=

    Name: (AUG-CC-PVTZ AUX)
    Role: RIFIT
    Keyword: DF_BASIS_MP2
    atoms 1-3, 5-6, 8-9, 11-13 entry H          line    29 file /cbio/jclab/home/chayas/anaconda/envs/py35/share/psi4/basis/aug-cc-pvtz-ri.gbs 
    atoms 4, 7, 10, 14         entry C          line   147 file /cbio/jclab/home/chayas/anaconda/envs/py35/share/psi4/basis/aug-cc-pvtz-ri.gbs 

	 --------------------------------------------------------
	                          DF-MP2                         
	      2nd-Order Density-Fitted Moller-Plesset Theory     
	              RMP2 Wavefunction,   1 Threads             
	                                                         
	        Rob Parrish, Justin Turney, Andy Simmonett,      
	           Ed Hohenstein, and C. David Sherrill          
	 --------------------------------------------------------

   => Auxiliary Basis Set <=

  Basis Set: (AUG-CC-PVTZ AUX)
    Blend: AUG-CC-PVTZ-RI
    Number of shells: 252
    Number of basis function: 884
    Number of Cartesian functions: 1094
    Spherical Harmonics?: true
    Max angular momentum: 4

	 --------------------------------------------------------
	                 NBF =   414, NAUX =   884
	 --------------------------------------------------------
	   CLASS    FOCC     OCC    AOCC    AVIR     VIR    FVIR
	   PAIRS       0      17      17     397     397       0
	 --------------------------------------------------------


         ------------------------------------------------------------
                                     CPHF                           
                                  Rob Parrish                       
         ------------------------------------------------------------

  ==> Geometry <==

    Molecular point group: c1
    Full point group: C1

    Geometry (in Angstrom), charge = 0, multiplicity = 1:

       Center              X                  Y                   Z               Mass       
    ------------   -----------------  -----------------  -----------------  -----------------
           H         -2.141829681983     1.709665600266    -0.476839830538     1.007825032070
           H         -1.907362155494     0.165990401436    -1.290552775901     1.007825032070
           H         -2.357115553800     0.206633129270     0.412461472270     1.007825032070
           C         -1.777088732741     0.697906997515    -0.357108091867    12.000000000000
           H          0.252671179378     1.347256188828    -0.645706905031     1.007825032070
           H         -0.190526043790     1.083130609357     1.042963583189     1.007825032070
           C         -0.293912638423     0.704811355691     0.033660733607    12.000000000000
           H         -0.251627195992    -1.348855064577     0.644533245462     1.007825032070
           H          0.192176752168    -1.082050280506    -1.043504321374     1.007825032070
           C          0.294613497707    -0.704957382994    -0.033686281772    12.000000000000
           H          2.186496173760    -1.698197660242     0.307180354696     1.007825032070
           H          1.887454198766    -0.324046579907     1.366392868257     1.007825032070
           H          2.330010555025    -0.058443320337    -0.317686030936     1.007825032070
           C          1.776358627379    -0.697851928402     0.357197329527    12.000000000000

  Nuclear repulsion =  131.460141976365463
  Reference energy  = -157.355087644844446

  ==> Basis Set <==

  Basis Set: AUG-CC-PVTZ
    Blend: AUG-CC-PVTZ
    Number of shells: 146
    Number of basis function: 414
    Number of Cartesian functions: 470
    Spherical Harmonics?: true
    Max angular momentum: 3

  ==> CGRSolver (by Rob Parrish) <==

   Number of roots    =         1
   Preconditioning    =    JACOBI
   Convergence cutoff =     1E-06
   Maximum iterations =       100

  ==> CPHFRHamiltonian (by Rob Parrish) <== 

  ==> DFJK: Density-Fitted J/K Matrices <==

    J tasked:                  Yes
    K tasked:                  Yes
    wK tasked:                  No
    OpenMP threads:              1
    Integrals threads:           1
    Memory (MB):              3576
    Algorithm:                Core
    Integral Cache:           NONE
    Schwarz Cutoff:          1E-12
    Fitting Condition:       1E-12

   => Auxiliary Basis Set <=

  Basis Set: (AUG-CC-PVTZ AUX)
    Blend: AUG-CC-PVTZ-JKFIT
    Number of shells: 260
    Number of basis function: 876
    Number of Cartesian functions: 1074
    Spherical Harmonics?: true
    Max angular momentum: 4

  ==> CPHF Iterations <==

  => Iterations <=

             Iter  Converged  Remaining    Residual
  CGR           1          0          1   8.306E-02
  CGR           2          0          1   1.322E-02
  CGR           3          0          1   3.487E-03
  CGR           4          0          1   8.136E-04
  CGR           5          0          1   1.197E-04
  CGR           6          0          1   2.164E-05
  CGR           7          0          1   3.712E-06
  CGR           8          1          0   8.227E-07

    CGRSolver converged.

  ==> DFCorrGrad: Density-Fitted Correlated Gradients <==

    OpenMP threads:              1
    Integrals threads:           1
    Memory (MB):              3576
    Schwarz Cutoff:          0E+00
    Fitting Condition:       1E-12

   => Auxiliary Basis Set <=

  Basis Set: (AUG-CC-PVTZ AUX)
    Blend: AUG-CC-PVTZ-JKFIT
    Number of shells: 260
    Number of basis function: 876
    Number of Cartesian functions: 1074
    Spherical Harmonics?: true
    Max angular momentum: 4

	-----------------------------------------------------------
	 ==================> DF-MP2 Energies <==================== 
	-----------------------------------------------------------
	 Reference Energy          =    -157.3550876448444455 [Eh]
	 Singles Energy            =      -0.0000000000000001 [Eh]
	 Same-Spin Energy          =      -0.1653417073904979 [Eh]
	 Opposite-Spin Energy      =      -0.6391346579584951 [Eh]
	 Correlation Energy        =      -0.8044763653489930 [Eh]
	 Total Energy              =    -158.1595640101934350 [Eh]
	-----------------------------------------------------------
	 ================> DF-SCS-MP2 Energies <================== 
	-----------------------------------------------------------
	 SCS Same-Spin Scale       =       0.3333333333333333 [-]
	 SCS Opposite-Spin Scale   =       1.2000000000000000 [-]
	 SCS Same-Spin Energy      =      -0.0551139024634993 [Eh]
	 SCS Opposite-Spin Energy  =      -0.7669615895501941 [Eh]
	 SCS Correlation Energy    =      -0.8220754920136935 [Eh]
	 SCS Total Energy          =    -158.1771631368581268 [Eh]
	-----------------------------------------------------------


  -Total Gradient:
     Atom            X                  Y                   Z
    ------   -----------------  -----------------  -----------------
       1        0.003432586665    -0.002421753976     0.000393645339
       2        0.002118039347     0.001267014500     0.003122998725
       3        0.003462006602     0.002240674583    -0.001239730093
       4       -0.013363240436    -0.003413550770    -0.004142122941
       5       -0.003410390231    -0.003562882238     0.000541298576
       6       -0.002548655546    -0.003795108366    -0.002886514066
       7        0.012290055699     0.015589437803     0.006536396188
       8        0.003415257831     0.004062513824    -0.000329518797
       9        0.002426126301     0.003254467417     0.003131056586
      10       -0.012256198969    -0.015568262911    -0.006548150084
      11       -0.003320925279     0.002334862167    -0.000511877918
      12       -0.002157230272    -0.001347682305    -0.003291598803
      13       -0.003276430078    -0.002058395231     0.001267690119
      14        0.013188998365     0.003418665506     0.003956427167


*** tstop() called on gpu-1-6.local at Wed Jun 14 14:35:06 2017
Module time:
	user time   =     372.43 seconds =       6.21 minutes
	system time =       3.86 seconds =       0.06 minutes
	total time  =        376 seconds =       6.27 minutes
Total time:
	user time   =     814.96 seconds =      13.58 minutes
	system time =       8.12 seconds =       0.14 minutes
	total time  =        824 seconds =      13.73 minutes

			-----------------------------------------
			 OPTKING 2.0: for geometry optimizations 
			  - R.A. King,  Bethel University        
			-----------------------------------------

	Previous internal coordinate definitions found.
	---Fragment 1 Geometry and Gradient---
	 H          -4.0474715222        3.2307997633       -0.9010966890
	 H          -3.6043921101        0.3136763994       -2.4387913065
	 H          -4.4543028602        0.3904800243        0.7794392230
	 C          -3.3582110187        1.3188530915       -0.6748364935
	 H           0.4774793307        2.5459452277       -1.2202092126
	 H          -0.3600420439        2.0468202178        1.9709155388
	 C          -0.5554143936        1.3319004376        0.0636095679
	 H          -0.4755064880       -2.5489666650        1.2179913175
	 H           0.3631614307       -2.0447786922       -1.9719373859
	 C           0.5567388257       -1.3321763892       -0.0636578470
	 H           4.1318789590       -3.2091284974        0.5804867438
	 H           3.5667715240       -0.6123592903        2.5821083109
	 H           4.4030818357       -0.1104418697       -0.6003395947
	 C           3.3568313195       -1.3187490260        0.6750051282
	             0.0034325867       -0.0024217540        0.0003936453
	             0.0021180393        0.0012670145        0.0031229987
	             0.0034620066        0.0022406746       -0.0012397301
	            -0.0133632404       -0.0034135508       -0.0041421229
	            -0.0034103902       -0.0035628822        0.0005412986
	            -0.0025486555       -0.0037951084       -0.0028865141
	             0.0122900557        0.0155894378        0.0065363962
	             0.0034152578        0.0040625138       -0.0003295188
	             0.0024261263        0.0032544674        0.0031310566
	            -0.0122561990       -0.0155682629       -0.0065481501
	            -0.0033209253        0.0023348622       -0.0005118779
	            -0.0021572303       -0.0013476823       -0.0032915988
	            -0.0032764301       -0.0020583952        0.0012676901
	             0.0131889984        0.0034186655        0.0039564272

	---Fragment 1 Intrafragment Coordinates---
	 - Coordinate -           - BOHR/RAD -       - ANG/DEG -
	 R(1,4)           =         2.044948	       1.082140
	 R(2,4)           =         2.045121	       1.082232
	 R(3,4)           =         2.044067	       1.081674
	 R(4,7)           =         2.898472	       1.533805
	 R(5,7)           =         2.046696	       1.083065
	 R(6,7)           =         2.046240	       1.082823
	 R(7,10)          =         2.889704	       1.529165
	 R(8,10)          =         2.046640	       1.083035
	 R(9,10)          =         2.046168	       1.082786
	 R(10,14)         =         2.895915	       1.532452
	 R(11,14)         =         2.045279	       1.082315
	 R(12,14)         =         2.044530	       1.081919
	 R(13,14)         =         2.044786	       1.082054
	 B(1,4,2)         =         1.900252	     108.876421
	 B(1,4,3)         =         1.899292	     108.821389
	 B(1,4,7)         =         1.928271	     110.481773
	 B(2,4,3)         =         1.902729	     109.018359
	 B(2,4,7)         =         1.915968	     109.776884
	 B(3,4,7)         =         1.916985	     109.835153
	 B(4,7,5)         =         1.908019	     109.321413
	 B(4,7,6)         =         1.908554	     109.352095
	 B(4,7,10)        =         1.935629	     110.903371
	 B(5,7,6)         =         1.906301	     109.223008
	 B(5,7,10)        =         1.901812	     108.965801
	 B(6,7,10)        =         1.903297	     109.050860
	 B(7,10,8)        =         1.903308	     109.051509
	 B(7,10,9)        =         1.902583	     109.009997
	 B(7,10,14)       =         1.935449	     110.893035
	 B(8,10,9)        =         1.906309	     109.223477
	 B(8,10,14)       =         1.907840	     109.311168
	 B(9,10,14)       =         1.908129	     109.327724
	 B(10,14,11)      =         1.928723	     110.507672
	 B(10,14,12)      =         1.916452	     109.804619
	 B(10,14,13)      =         1.916000	     109.778686
	 B(11,14,12)      =         1.900255	     108.876581
	 B(11,14,13)      =         1.900170	     108.871728
	 B(12,14,13)      =         1.901890	     108.970275
	 D(1,4,7,5)       =        -0.870548	     -49.878731
	 D(1,4,7,6)       =         1.215704	      69.654694
	 D(1,4,7,10)      =        -2.967920	    -170.049301
	 D(2,4,7,5)       =         1.225365	      70.208215
	 D(2,4,7,6)       =        -2.971569	    -170.258359
	 D(2,4,7,10)      =        -0.872008	     -49.962355
	 D(3,4,7,5)       =        -2.965920	    -169.934698
	 D(3,4,7,6)       =        -0.879668	     -50.401273
	 D(3,4,7,10)      =         1.219893	      69.894732
	 D(4,7,10,8)      =        -1.039593	     -59.564281
	 D(4,7,10,9)      =         1.040315	      59.605682
	 D(4,7,10,14)     =        -3.141286	    -179.982433
	 D(5,7,10,8)      =        -3.140655	    -179.946303
	 D(5,7,10,9)      =        -1.060747	     -60.776340
	 D(5,7,10,14)     =         1.040837	      59.635545
	 D(6,7,10,8)      =         1.063091	      60.910643
	 D(6,7,10,9)      =        -3.140186	    -179.919395
	 D(6,7,10,14)     =        -1.038602	     -59.507510
	 D(7,10,14,11)    =        -3.141344	    -179.985738
	 D(7,10,14,12)    =         1.045329	      59.892962
	 D(7,10,14,13)    =        -1.045227	     -59.887086
	 D(8,10,14,11)    =         1.042842	      59.750434
	 D(8,10,14,12)    =        -1.053670	     -60.370865
	 D(8,10,14,13)    =         3.138959	     179.849086
	 D(9,10,14,11)    =        -1.043056	     -59.762735
	 D(9,10,14,12)    =        -3.139569	    -179.884035
	 D(9,10,14,13)    =         1.053060	      60.335917

	Current energy   :      -158.1595640102

	Energy change for the previous step:
		Projected    :        -0.0048168039
		Actual       :        -0.0030380314

	Performing BFGS update.
	Previous computed or guess Hessian on step 1.
	Steps to be used in Hessian update: 1
	Adding user-defined constraint: Fragment 1; Coordinate 46:
		Value =     1.219893; Fixed value    =     1.221730
		Force =     0.000964; Force constant =     0.525000
	Removing off-diagonal coupling between coordinate 46 and others.
	Taking RFO optimization step.
	Going to follow RFO solution 1.
	Using RFO vector 1.

	Determining step-restricting scale parameter for RS-RFO.
	Maximum step size allowed    0.10000

	 Iter      |step|        alpha        rfo_root  
	------------------------------------------------
	    0     0.15547       1.00000           1
	    1     0.12997       6.13086           1
	    2     0.10918      15.83328           1
	    3     0.10124      21.79892           1
	    4     0.10003      22.86813           1
	    5     0.10000      22.89310           1
	------------------------------------------------
	Norm of target step-size    0.10000
	Projected energy change by RFO approximation:        -0.0008381982

	Back-transformation to cartesian coordinates...
	Successfully converged to displaced geometry.

	--- Internal Coordinate Step in ANG or DEG, aJ/ANG or AJ/DEG ---
	 ---------------------------------------------------------------------------
	   Coordinate                Previous        Force       Change         New 
	   ----------                --------       ------       ------       ------
	    1 R(1,4)          =      1.082140     0.028545     0.005146     1.087286
	    2 R(2,4)          =      1.082232     0.029423     0.005578     1.087810
	    3 R(3,4)          =      1.081674     0.030946     0.005790     1.087464
	    4 R(4,7)          =      1.533805    -0.038662    -0.010643     1.523163
	    5 R(5,7)          =      1.083065     0.034389     0.006554     1.089619
	    6 R(6,7)          =      1.082823     0.035095     0.006670     1.089493
	    7 R(7,10)         =      1.529165    -0.039407    -0.009924     1.519242
	    8 R(8,10)         =      1.083035     0.035790     0.006798     1.089833
	    9 R(9,10)         =      1.082786     0.035286     0.006706     1.089491
	   10 R(10,14)        =      1.532452    -0.038400    -0.010502     1.521950
	   11 R(11,14)        =      1.082315     0.027953     0.005017     1.087332
	   12 R(12,14)        =      1.081919     0.030957     0.005820     1.087739
	   13 R(13,14)        =      1.082054     0.030347     0.005722     1.087777
	   14 B(1,4,2)        =    108.876421    -0.000153    -0.675924   108.200496
	   15 B(1,4,3)        =    108.821389    -0.000175    -0.859526   107.961864
	   16 B(1,4,7)        =    110.481773     0.000197     0.800836   111.282609
	   17 B(2,4,3)        =    109.018359    -0.000136    -0.646601   108.371758
	   18 B(2,4,7)        =    109.776884     0.000124     0.660644   110.437527
	   19 B(3,4,7)        =    109.835153     0.000133     0.651093   110.486247
	   20 B(4,7,5)        =    109.321413    -0.000018     0.158012   109.479425
	   21 B(4,7,6)        =    109.352095    -0.000031     0.131594   109.483689
	   22 B(4,7,10)       =    110.903371     0.000268     1.139325   112.042696
	   23 B(5,7,6)        =    109.223008    -0.000080    -1.204782   108.018226
	   24 B(5,7,10)       =    108.965801    -0.000081    -0.230548   108.735253
	   25 B(6,7,10)       =    109.050860    -0.000063    -0.058055   108.992805
	   26 B(7,10,8)       =    109.051509    -0.000063    -0.092714   108.958795
	   27 B(7,10,9)       =    109.009997    -0.000079    -0.194939   108.815058
	   28 B(7,10,14)      =    110.893035     0.000265     1.124552   112.017587
	   29 B(8,10,9)       =    109.223477    -0.000078    -1.187744   108.035732
	   30 B(8,10,14)      =    109.311168    -0.000029     0.128770   109.439938
	   31 B(9,10,14)      =    109.327724    -0.000020     0.159332   109.487056
	   32 B(10,14,11)     =    110.507672     0.000201     0.865924   111.373596
	   33 B(10,14,12)     =    109.804619     0.000122     0.601629   110.406248
	   34 B(10,14,13)     =    109.778686     0.000115     0.578224   110.356909
	   35 B(11,14,12)     =    108.876581    -0.000153    -0.671306   108.205274
	   36 B(11,14,13)     =    108.871728    -0.000150    -0.659043   108.212685
	   37 B(12,14,13)     =    108.970275    -0.000145    -0.784121   108.186154
	   38 D(1,4,7,5)      =    -49.878731     0.000009     0.333625   -49.545106
	   39 D(1,4,7,6)      =     69.654694    -0.000020    -0.959377    68.695317
	   40 D(1,4,7,10)     =   -170.049301    -0.000004    -0.211650  -170.260951
	   41 D(2,4,7,5)      =     70.208215     0.000013     0.437252    70.645468
	   42 D(2,4,7,6)      =   -170.258359    -0.000017    -0.855750  -171.114109
	   43 D(2,4,7,10)     =    -49.962355    -0.000000    -0.108023   -50.070378
	   44 D(3,4,7,5)      =   -169.934698     0.000011     0.466790  -169.467908
	   45 D(3,4,7,6)      =    -50.401273    -0.000018    -0.826213   -51.227485
	   46 D(3,4,7,10)     =     69.894732    -0.000002    -0.078486    69.816246
	   47 D(4,7,10,8)     =    -59.564281     0.000022     0.873863   -58.690418
[...]

  ==> CPHF Iterations <==

  => Iterations <=

             Iter  Converged  Remaining    Residual
  CGR           1          0          1   8.473E-02
  CGR           2          0          1   1.341E-02
  CGR           3          0          1   3.542E-03
  CGR           4          0          1   8.153E-04
  CGR           5          0          1   1.194E-04
  CGR           6          0          1   2.200E-05
  CGR           7          0          1   3.816E-06
  CGR           8          1          0   8.670E-07

    CGRSolver converged.

  ==> DFCorrGrad: Density-Fitted Correlated Gradients <==

    OpenMP threads:              1
    Integrals threads:           1
    Memory (MB):              3576
    Schwarz Cutoff:          0E+00
    Fitting Condition:       1E-12

   => Auxiliary Basis Set <=

  Basis Set: (AUG-CC-PVTZ AUX)
    Blend: AUG-CC-PVTZ-JKFIT
    Number of shells: 260
    Number of basis function: 876
    Number of Cartesian functions: 1074
    Spherical Harmonics?: true
    Max angular momentum: 4

	-----------------------------------------------------------
	 ==================> DF-MP2 Energies <==================== 
	-----------------------------------------------------------
	 Reference Energy          =    -157.3560962292843328 [Eh]
	 Singles Energy            =      -0.0000000000000000 [Eh]
	 Same-Spin Energy          =      -0.1654512387193454 [Eh]
	 Opposite-Spin Energy      =      -0.6391916744156304 [Eh]
	 Correlation Energy        =      -0.8046429131349757 [Eh]
	 Total Energy              =    -158.1607391424193167 [Eh]
	-----------------------------------------------------------
	 ================> DF-SCS-MP2 Energies <================== 
	-----------------------------------------------------------
	 SCS Same-Spin Scale       =       0.3333333333333333 [-]
	 SCS Opposite-Spin Scale   =       1.2000000000000000 [-]
	 SCS Same-Spin Energy      =      -0.0551504129064485 [Eh]
	 SCS Opposite-Spin Energy  =      -0.7670300092987564 [Eh]
	 SCS Correlation Energy    =      -0.8221804222052049 [Eh]
	 SCS Total Energy          =    -158.1782766514895400 [Eh]
	-----------------------------------------------------------


  -Total Gradient:
     Atom            X                  Y                   Z
    ------   -----------------  -----------------  -----------------
       1       -0.000008443795     0.000035036754    -0.000004433417
       2       -0.000019130860    -0.000031877574    -0.000057101583
       3       -0.000216213116     0.001368367464     0.000769072681
       4        0.000468601722    -0.001691921174    -0.001304211634
       5       -0.000007358181    -0.000000548416    -0.000009100366
       6       -0.000007401394    -0.000013398889     0.000053853132
       7       -0.000429367046     0.000147307469     0.001652150152
       8       -0.000021018475    -0.000009007554     0.000041801978
       9        0.000012593677     0.000016058962    -0.000006206551
      10        0.000271662901     0.000144422940    -0.001115638941
      11        0.000018194939    -0.000053179900    -0.000003787620
      12        0.000007738573     0.000017248402     0.000052914407
      13        0.000042314005     0.000031041304    -0.000030621376
      14       -0.000112172943     0.000040450210    -0.000038690861


*** tstop() called on gpu-1-6.local at Wed Jun 14 14:54:33 2017
Module time:
	user time   =     368.26 seconds =       6.14 minutes
	system time =       4.01 seconds =       0.07 minutes
	total time  =        373 seconds =       6.22 minutes
Total time:
	user time   =    1968.41 seconds =      32.81 minutes
	system time =      20.38 seconds =       0.34 minutes
	total time  =       1991 seconds =      33.18 minutes

			-----------------------------------------
			 OPTKING 2.0: for geometry optimizations 
			  - R.A. King,  Bethel University        
			-----------------------------------------

	Previous internal coordinate definitions found.
	---Fragment 1 Geometry and Gradient---
	 H          -4.0824235276        3.2182205105       -0.8838332051
	 H          -3.6659961791        0.3080006174       -2.4385376840
	 H          -4.4823011311        0.3864830443        0.7910070989
	 C          -3.3597548969        1.3060285281       -0.6663714734
	 H           0.4603168722        2.5441668709       -1.2448066634
	 H          -0.3364239135        2.0928030926        1.9289655792
	 C          -0.5794953832        1.3087769498        0.0378091325
	 H          -0.4744845232       -2.5699527087        1.1746898080
	 H           0.3840809275       -2.0537943137       -1.9738873633
	 C           0.5870556490       -1.3070005198       -0.0629928103
	 H           4.1644284599       -3.1956417955        0.5933982190
	 H           3.5832731640       -0.6186036312        2.6142150441
	 H           4.4448546244       -0.0847334786       -0.5495866087
	 C           3.3525872820       -1.3100682147        0.6905788858
	            -0.0000084438        0.0000350368       -0.0000044334
	            -0.0000191309       -0.0000318776       -0.0000571016
	            -0.0002162131        0.0013683675        0.0007690727
	             0.0004686017       -0.0016919212       -0.0013042116
	            -0.0000073582       -0.0000005484       -0.0000091004
	            -0.0000074014       -0.0000133989        0.0000538531
	            -0.0004293670        0.0001473075        0.0016521502
	            -0.0000210185       -0.0000090076        0.0000418020
	             0.0000125937        0.0000160590       -0.0000062066
	             0.0002716629        0.0001444229       -0.0011156389
	             0.0000181949       -0.0000531799       -0.0000037876
	             0.0000077386        0.0000172484        0.0000529144
	             0.0000423140        0.0000310413       -0.0000306214
	            -0.0001121729        0.0000404502       -0.0000386909

	---Fragment 1 Intrafragment Coordinates---
	 - Coordinate -           - BOHR/RAD -       - ANG/DEG -
	 R(1,4)           =         2.055728	       1.087844
	 R(2,4)           =         2.056798	       1.088410
	 R(3,4)           =         2.056606	       1.088309
	 R(4,7)           =         2.868052	       1.517708
	 R(5,7)           =         2.062159	       1.091248
	 R(6,7)           =         2.061614	       1.090959
	 R(7,10)          =         2.865885	       1.516561
	 R(8,10)          =         2.062468	       1.091411
	 R(9,10)          =         2.061654	       1.090980
	 R(10,14)         =         2.866364	       1.516815
	 R(11,14)         =         2.055217	       1.087574
	 R(12,14)         =         2.057113	       1.088577
	 R(13,14)         =         2.057305	       1.088679
	 B(1,4,2)         =         1.883747	     107.930780
	 B(1,4,3)         =         1.874422	     107.396471
	 B(1,4,7)         =         1.945352	     111.460483
	 B(2,4,3)         =         1.888454	     108.200451
	 B(2,4,7)         =         1.935153	     110.876090
	 B(3,4,7)         =         1.934307	     110.827626
	 B(4,7,5)         =         1.914167	     109.673668
	 B(4,7,6)         =         1.917590	     109.869813
	 B(4,7,10)        =         1.966088	     112.648522
	 B(5,7,6)         =         1.858002	     106.455646
	 B(5,7,10)        =         1.896177	     108.642967
	 B(6,7,10)        =         1.908563	     109.352623
	 B(7,10,8)        =         1.905297	     109.165484
	 B(7,10,9)        =         1.899847	     108.853205
	 B(7,10,14)       =         1.965417	     112.610106
	 B(8,10,9)        =         1.858479	     106.482995
	 B(8,10,14)       =         1.915764	     109.765191
	 B(9,10,14)       =         1.915883	     109.772001
	 B(10,14,11)      =         1.949450	     111.695242
	 B(10,14,12)      =         1.932298	     110.712504
	 B(10,14,13)      =         1.931708	     110.678722
	 B(11,14,12)      =         1.884210	     107.957266
	 B(11,14,13)      =         1.884111	     107.951602
	 B(12,14,13)      =         1.879640	     107.695449
	 D(1,4,7,5)       =        -0.864214	     -49.515843
	 D(1,4,7,6)       =         1.172328	      67.169441
	 D(1,4,7,10)      =        -2.978396	    -170.649546
	 D(2,4,7,5)       =         1.234773	      70.747279
	 D(2,4,7,6)       =        -3.011870	    -172.567437
	 D(2,4,7,10)      =        -0.879409	     -50.386424
	 D(3,4,7,5)       =        -2.950846	    -169.071035
	 D(3,4,7,6)       =        -0.914304	     -52.385751
	 D(3,4,7,10)      =         1.218157	      69.795261
	 D(4,7,10,8)      =        -0.989595	     -56.699600
	 D(4,7,10,9)      =         1.032449	      59.154974
	 D(4,7,10,14)     =        -3.122018	    -178.878428
	 D(5,7,10,8)      =        -3.114005	    -178.419341
	 D(5,7,10,9)      =        -1.091961	     -62.564767
	 D(5,7,10,14)     =         1.036758	      59.401831
	 D(6,7,10,8)      =         1.147949	      65.772612
	 D(6,7,10,9)      =        -3.113193	    -178.372814
	 D(6,7,10,14)     =        -0.984474	     -56.406216
	 D(7,10,14,11)    =        -3.133308	    -179.525296
	 D(7,10,14,12)    =         1.049497	      60.131731
	 D(7,10,14,13)    =        -1.033454	     -59.212543
	 D(8,10,14,11)    =         1.023373	      58.634961
	 D(8,10,14,12)    =        -1.077008	     -61.708011
	 D(8,10,14,13)    =         3.123227	     178.947715
	 D(9,10,14,11)    =        -1.013686	     -58.079921
	 D(9,10,14,12)    =        -3.114067	    -178.422894
	 D(9,10,14,13)    =         1.086168	      62.232832

	Current energy   :      -158.1607391424

	Energy change for the previous step:
		Projected    :        -0.0000367468
		Actual       :        -0.0000042475

	Performing BFGS update.
	Previous computed or guess Hessian on step 1.
	Steps to be used in Hessian update: 4 3
	Adding user-defined constraint: Fragment 1; Coordinate 46:
		Value =     1.218157; Fixed value    =     1.221730
		Force =     0.002144; Force constant =     0.600000
	Removing off-diagonal coupling between coordinate 46 and others.
	Taking RFO optimization step.
	Going to follow RFO solution 1.
	Using RFO vector 1.
	Norm of target step-size    0.00228
	Projected energy change by RFO approximation:        -0.0000002478

	Back-transformation to cartesian coordinates...
	Successfully converged to displaced geometry.

	--- Internal Coordinate Step in ANG or DEG, aJ/ANG or AJ/DEG ---
	 ---------------------------------------------------------------------------
	   Coordinate                Previous        Force       Change         New 
	   ----------                --------       ------       ------       ------
	    1 R(1,4)          =      1.087844    -0.000297    -0.000049     1.087795
	    2 R(2,4)          =      1.088410    -0.000556    -0.000091     1.088319
	    3 R(3,4)          =      1.088309    -0.000422    -0.000072     1.088236
	    4 R(4,7)          =      1.517708     0.000586     0.000166     1.517874
	    5 R(5,7)          =      1.091248    -0.000013    -0.000008     1.091239
	    6 R(6,7)          =      1.090959    -0.000358    -0.000057     1.090902
	    7 R(7,10)         =      1.516561     0.000352     0.000102     1.516663
	    8 R(8,10)         =      1.091411    -0.000341    -0.000059     1.091352
	    9 R(9,10)         =      1.090980     0.000011    -0.000002     1.090979
	   10 R(10,14)        =      1.516815     0.000393     0.000119     1.516934
	   11 R(11,14)        =      1.087574    -0.000463    -0.000076     1.087499
	   12 R(12,14)        =      1.088577    -0.000463    -0.000079     1.088498
	   13 R(13,14)        =      1.088679    -0.000489    -0.000082     1.088597
	   14 B(1,4,2)        =    107.930780     0.000000     0.001165   107.931945
	   15 B(1,4,3)        =    107.396471    -0.000003    -0.003808   107.392663
	   16 B(1,4,7)        =    111.460483    -0.000001     0.002364   111.462846
	   17 B(2,4,3)        =    108.200451     0.000003     0.005912   108.206363
	   18 B(2,4,7)        =    110.876090     0.000000    -0.004162   110.871928
	   19 B(3,4,7)        =    110.827626    -0.000000    -0.001266   110.826360
	   20 B(4,7,5)        =    109.673668    -0.000000    -0.003640   109.670028
	   21 B(4,7,6)        =    109.869813    -0.000001     0.001898   109.871711
	   22 B(4,7,10)       =    112.648522     0.000003     0.014601   112.663123
	   23 B(5,7,6)        =    106.455646    -0.000000    -0.012480   106.443166
	   24 B(5,7,10)       =    108.642967    -0.000004    -0.015044   108.627923
	   25 B(6,7,10)       =    109.352623     0.000003     0.012964   109.365587
	   26 B(7,10,8)       =    109.165484    -0.000000     0.000602   109.166086
	   27 B(7,10,9)       =    108.853205    -0.000001    -0.000254   108.852951
	   28 B(7,10,14)      =    112.610106     0.000003     0.015080   112.625186
	   29 B(8,10,9)       =    106.482995    -0.000000    -0.012528   106.470467
	   30 B(8,10,14)      =    109.765191    -0.000001    -0.005410   109.759781
	   31 B(9,10,14)      =    109.772001    -0.000000     0.000990   109.772990
	   32 B(10,14,11)     =    111.695242     0.000001     0.005710   111.700952
	   33 B(10,14,12)     =    110.712504    -0.000000    -0.001007   110.711497
	   34 B(10,14,13)     =    110.678722    -0.000002    -0.009383   110.669338
	   35 B(11,14,12)     =    107.957266    -0.000000     0.001565   107.958831
	   36 B(11,14,13)     =    107.951602     0.000000     0.002067   107.953670
	   37 B(12,14,13)     =    107.695449     0.000001     0.001226   107.696675
	   38 D(1,4,7,5)      =    -49.515843    -0.000000    -0.003197   -49.519039
	   39 D(1,4,7,6)      =     67.169441    -0.000000    -0.019345    67.150096
	   40 D(1,4,7,10)     =   -170.649546     0.000001     0.008749  -170.640797
	   41 D(2,4,7,5)      =     70.747279    -0.000000    -0.002956    70.744323
	   42 D(2,4,7,6)      =   -172.567437    -0.000000    -0.019105  -172.586541
	   43 D(2,4,7,10)     =    -50.386424     0.000001     0.008990   -50.377434
	   44 D(3,4,7,5)      =   -169.071035     0.000001     0.000890  -169.070145
	   45 D(3,4,7,6)      =    -52.385751     0.000001    -0.015258   -52.401009
	   46 D(3,4,7,10)     =     69.795261     0.000002     0.012836    69.808098
	   47 D(4,7,10,8)     =    -56.699600    -0.000000     0.033016   -56.666584
	   48 D(4,7,10,9)     =     59.154974    -0.000000     0.018272    59.173246
	   49 D(4,7,10,14)    =   -178.878428    -0.000000     0.029341  -178.849087
	   50 D(5,7,10,8)     =   -178.419341     0.000000     0.038586  -178.380755
	   51 D(5,7,10,9)     =    -62.564767    -0.000000     0.023842   -62.540925
	   52 D(5,7,10,14)    =     59.401831     0.000000     0.034911    59.436742
	   53 D(6,7,10,8)     =     65.772612     0.000000     0.054722    65.827334
	   54 D(6,7,10,9)     =   -178.372814     0.000000     0.039978  -178.332835
	   55 D(6,7,10,14)    =    -56.406216     0.000000     0.051047   -56.355168
	   56 D(7,10,14,11)   =   -179.525296     0.000000    -0.000309  -179.525606
	   57 D(7,10,14,12)   =     60.131731    -0.000000    -0.005439    60.126293
	   58 D(7,10,14,13)   =    -59.212543     0.000000    -0.000260   -59.212802
	   59 D(8,10,14,11)   =     58.634961    -0.000000    -0.007499    58.627462
	   60 D(8,10,14,12)   =    -61.708011    -0.000000    -0.012629   -61.720640
	   61 D(8,10,14,13)   =    178.947715    -0.000000    -0.007449   178.940266
	   62 D(9,10,14,11)   =    -58.079921     0.000000     0.010264   -58.069657
	   63 D(9,10,14,12)   =   -178.422894     0.000000     0.005134  -178.417759
	   64 D(9,10,14,13)   =     62.232832     0.000000     0.010314    62.243146
	 ---------------------------------------------------------------------------
	Successfully symmetrized geometry.
	 Forces used to impose fixed constraints are not included.
	  Forces zeroed: 46 

  ==> Convergence Check <==

  Measures of convergence in internal coordinates in au.
  Criteria marked as inactive (o), active & met (*), and active & unmet ( ).
  ---------------------------------------------------------------------------------------------
   Step     Total Energy     Delta E     MAX Force     RMS Force      MAX Disp      RMS Disp   
  ---------------------------------------------------------------------------------------------
    Convergence Criteria    1.00e-06 *    3.00e-04 *             o    1.20e-03 *             o
  ---------------------------------------------------------------------------------------------
      5    -158.16073914   -4.25e-06      7.11e-05 *    2.90e-05 o    9.55e-04 *    2.85e-04 o  ~
  ---------------------------------------------------------------------------------------------


  **** Optimization is complete! (in 5 steps) ****

  ==> Optimization Summary <==

  Measures of convergence in internal coordinates in au.
  --------------------------------------------------------------------------------------------------------------- ~
   Step         Total Energy             Delta E       MAX Force       RMS Force        MAX Disp        RMS Disp  ~
  --------------------------------------------------------------------------------------------------------------- ~
      1    -158.156525978838   -158.156525978838      0.01316340      0.00561574      0.02520403      0.01250429  ~
      2    -158.159564010193     -0.003038031355      0.00478312      0.00224371      0.03011924      0.01252331  ~
      3    -158.160552712925     -0.000988702731      0.00150752      0.00058138      0.04784554      0.01251652  ~
      4    -158.160734894912     -0.000182181987      0.00052026      0.00014818      0.00689259      0.00237543  ~
      5    -158.160739142419     -0.000004247507      0.00009539      0.00003132      0.00095509      0.00028539  ~
  --------------------------------------------------------------------------------------------------------------- ~

	Writing optimization data to binary file.
	Final energy is   -158.1607391424193
	Final (previous) structure:
	Cartesian Geometry (in Angstrom)
	    H    -2.1603254866   1.7030089464  -0.4677043883
	    H    -1.9399616248   0.1629869070  -1.2904185647
	    H    -2.3719316006   0.2045180186   0.4185829286
	    C    -1.7779057179   0.6911205308  -0.3526285962
	    H     0.2435891975   1.3463151229  -0.6587233154
	    H    -0.1780278674   1.1074636986   1.0207646207
	    C    -0.3066557493   0.6925749330   0.0200077312
	    H    -0.2510863955  -1.3599604006   0.6216190736
	    H     0.2032468731  -1.0868211419  -1.0445362050
	    C     0.3106564696  -0.6916348867  -0.0333343595
	    H     2.2037206278  -1.6910608050   0.3140128131
	    H     1.8961864905  -0.3273509428   1.3833830197
	    H     2.3521157627  -0.0448390257  -0.2908287075
	    C     1.7741127794  -0.6932582409   0.3654386071
	Saving final (previous) structure.
			--------------------------
			 OPTKING Finished Execution 
			--------------------------

    Final optimized geometry and variables:
    Molecular point group: c1
    Full point group: C1

    Geometry (in Angstrom), charge = 0, multiplicity = 1:

    H           -2.160325486629     1.703008946385    -0.467704388332
    H           -1.939961624758     0.162986906983    -1.290418564671
    H           -2.371931600609     0.204518018572     0.418582928573
    C           -1.777905717914     0.691120530843    -0.352628596162
    H            0.243589197507     1.346315122936    -0.658723315384
    H           -0.178027867429     1.107463698648     1.020764620656
    C           -0.306655749270     0.692574932974     0.020007731215
    H           -0.251086395524    -1.359960400620     0.621619073556
    H            0.203246873091    -1.086821141917    -1.044536204970
    C            0.310656469626    -0.691634886679    -0.033334359536
    H            2.203720627787    -1.691060805012     0.314012813138
    H            1.896186490515    -0.327350942782     1.383383019680
    H            2.352115762743    -0.044839025685    -0.290828707497
    C            1.774112779443    -0.693258240922     0.365438607094

	Cleaning optimization helper files.

*** Psi4 exiting successfully. Buy a developer a beer!
