
    -----------------------------------------------------------------------
          Psi4: An Open-Source Ab Initio Electronic Structure Package
                               Psi4 1.1 release

                         Git: Rev {HEAD} add49b9 


    R. M. Parrish, L. A. Burns, D. G. A. Smith, A. C. Simmonett,
    A. E. DePrince III, E. G. Hohenstein, U. Bozkaya, A. Yu. Sokolov,
    R. Di Remigio, R. M. Richard, J. F. Gonthier, A. M. James,
    H. R. McAlexander, A. Kumar, M. Saitow, X. Wang, B. P. Pritchard,
    P. Verma, H. F. Schaefer III, K. Patkowski, R. A. King, E. F. Valeev,
    F. A. Evangelista, J. M. Turney, T. D. Crawford, and C. D. Sherrill,
    J. Chem. Theory Comput. in press (2017).
    (doi: 10.1021/acs.jctc.7b00174)

    -----------------------------------------------------------------------


    Psi4 started on: Wednesday, 14 June 2017 02:19PM

    Process ID:  11656
    PSIDATADIR: /cbio/jclab/home/chayas/anaconda/envs/py35/share/psi4
    Memory:     500.0 MiB
    Threads:    1
    
  ==> Input File <==

--------------------------------------------------------------------------

memory 5000 mb

molecule butane {
  symmetry C1
  0 1 
  H      1.850   0.393   -9.167
  H      1.551   1.758   -8.116
  H      1.991   2.020   -9.786
  C      2.142   1.395   -8.932
  H      4.169   2.051   -9.210
  H      3.731   1.788   -7.539
  C      3.631   1.416   -8.537
  H      3.665   -0.647   -7.940
  H      4.104   -0.384   -9.610
  C      4.203   -0.012   -8.612
  H      6.088   -0.983   -8.270
  H      5.791   0.381   -7.220
  H      6.230   0.644   -8.890
  C      5.691   0.009   -8.218
  units Angstrom
}

dih_string = "10 7 4 3 240"
set optking fixed_dihedral = $dih_string

optimize('MP2/aug-cc-pvtz')
--------------------------------------------------------------------------

  Memory set to   4.657 GiB by Python driver.
gradient() will perform analytic gradient computation.

*** tstart() called on cpu-6-1.local
*** at Wed Jun 14 14:19:21 2017

    SCF Algorithm Type (re)set to DF.

*** tstart() called on cpu-6-1.local
*** at Wed Jun 14 14:19:21 2017

   => Loading Basis Set <=

    Name: AUG-CC-PVTZ
    Role: ORBITAL
    Keyword: BASIS
    atoms 1-3, 5-6, 8-9, 11-13 entry H          line    34 file /cbio/jclab/home/chayas/anaconda/envs/py35/share/psi4/basis/aug-cc-pvtz.gbs 
    atoms 4, 7, 10, 14         entry C          line   221 file /cbio/jclab/home/chayas/anaconda/envs/py35/share/psi4/basis/aug-cc-pvtz.gbs 


         ---------------------------------------------------------
                                   SCF
            by Justin Turney, Rob Parrish, and Andy Simmonett
                              RHF Reference
                        1 Threads,   4768 MiB Core
         ---------------------------------------------------------

  ==> Geometry <==

    Molecular point group: c1
    Full point group: C1

    Geometry (in Angstrom), charge = 0, multiplicity = 1:

       Center              X                  Y                   Z               Mass       
    ------------   -----------------  -----------------  -----------------  -----------------
           H         -2.066793382205    -0.309017352882    -0.592241323559     1.007825032070
           H         -2.365793382205     1.055982647118     0.458758676441     1.007825032070
           H         -1.925793382205     1.317982647118    -1.211241323559     1.007825032070
           C         -1.774793382205     0.692982647118    -0.357241323559    12.000000000000
           H          0.252206617795     1.348982647118    -0.635241323559     1.007825032070
           H         -0.185793382205     1.085982647118     1.035758676441     1.007825032070
           C         -0.285793382205     0.713982647118     0.037758676441    12.000000000000
           H         -0.251793382205    -1.349017352882     0.634758676441     1.007825032070
           H          0.187206617795    -1.086017352882    -1.035241323559     1.007825032070
           C          0.286206617795    -0.714017352882    -0.037241323559    12.000000000000
           H          2.171206617795    -1.685017352882     0.304758676441     1.007825032070
           H          1.874206617795    -0.321017352882     1.354758676441     1.007825032070
           H          2.313206617795    -0.058017352882    -0.315241323559     1.007825032070
           C          1.774206617795    -0.693017352882     0.356758676441    12.000000000000

  Running in c1 symmetry.

  Rotational constants: A =      0.76948  B =      0.12465  C =      0.11638 [cm^-1]
  Rotational constants: A =  23068.42867  B =   3736.78838  C =   3488.96865 [MHz]
  Nuclear repulsion =  131.851346967956260

  Charge       = 0
  Multiplicity = 1
  Electrons    = 34
  Nalpha       = 17
  Nbeta        = 17

  ==> Algorithm <==

  SCF Algorithm Type is DF.
  DIIS enabled.
  MOM disabled.
  Fractional occupation disabled.
  Guess Type is SAD.
  Energy threshold   = 1.00e-10
  Density threshold  = 1.00e-10
  Integral threshold = 0.00e+00

  ==> Primary Basis <==

  Basis Set: AUG-CC-PVTZ
    Blend: AUG-CC-PVTZ
    Number of shells: 146
    Number of basis function: 414
    Number of Cartesian functions: 470
    Spherical Harmonics?: true
    Max angular momentum: 3

   => Loading Basis Set <=

    Name: (AUG-CC-PVTZ AUX)
    Role: JKFIT
    Keyword: DF_BASIS_SCF
    atoms 1-3, 5-6, 8-9, 11-13 entry H          line    69 file /cbio/jclab/home/chayas/anaconda/envs/py35/share/psi4/basis/aug-cc-pvtz-jkfit.gbs 
    atoms 4, 7, 10, 14         entry C          line   161 file /cbio/jclab/home/chayas/anaconda/envs/py35/share/psi4/basis/aug-cc-pvtz-jkfit.gbs 

  ==> Pre-Iterations <==

   -------------------------------------------------------
    Irrep   Nso     Nmo     Nalpha   Nbeta   Ndocc  Nsocc
   -------------------------------------------------------
     A        414     414       0       0       0       0
   -------------------------------------------------------
    Total     414     414      17      17      17       0
   -------------------------------------------------------

  ==> Integral Setup <==

  ==> DFJK: Density-Fitted J/K Matrices <==

    J tasked:                  Yes
    K tasked:                  Yes
    wK tasked:                  No
    OpenMP threads:              1
    Integrals threads:           1
    Memory (MB):              3576
    Algorithm:                Core
    Integral Cache:           NONE
    Schwarz Cutoff:          1E-12
    Fitting Condition:       1E-12

   => Auxiliary Basis Set <=

  Basis Set: (AUG-CC-PVTZ AUX)
    Blend: AUG-CC-PVTZ-JKFIT
    Number of shells: 260
    Number of basis function: 876
    Number of Cartesian functions: 1074
    Spherical Harmonics?: true
    Max angular momentum: 4

  Minimum eigenvalue in the overlap matrix is 8.3395655320E-06.
  Using Symmetric Orthogonalization.

  SCF Guess: Superposition of Atomic Densities via on-the-fly atomic UHF.

  ==> Iterations <==

                           Total Energy        Delta E     RMS |[F,P]|

   @DF-RHF iter   0:  -159.07668434704973   -1.59077e+02   9.60382e-03 
   @DF-RHF iter   1:  -157.25483208208266    1.82185e+00   8.30996e-04 
   @DF-RHF iter   2:  -157.33745411023037   -8.26220e-02   2.50668e-04 DIIS
   @DF-RHF iter   3:  -157.34578143666292   -8.32733e-03   1.02824e-04 DIIS
   @DF-RHF iter   4:  -157.34710980929489   -1.32837e-03   2.00338e-05 DIIS
   @DF-RHF iter   5:  -157.34718646714049   -7.66578e-05   4.36482e-06 DIIS
   @DF-RHF iter   6:  -157.34719079880190   -4.33166e-06   8.29408e-07 DIIS
   @DF-RHF iter   7:  -157.34719095314517   -1.54343e-07   1.85933e-07 DIIS
   @DF-RHF iter   8:  -157.34719095980591   -6.66074e-09   5.97571e-08 DIIS
   @DF-RHF iter   9:  -157.34719096041778   -6.11863e-10   1.66182e-08 DIIS
   @DF-RHF iter  10:  -157.34719096047985   -6.20730e-11   3.37841e-09 DIIS
   @DF-RHF iter  11:  -157.34719096048099   -1.13687e-12   7.61645e-10 DIIS
   @DF-RHF iter  12:  -157.34719096047934    1.64846e-12   2.29692e-10 DIIS
   @DF-RHF iter  13:  -157.34719096048303   -3.69482e-12   6.21935e-11 DIIS

  ==> Post-Iterations <==

    Orbital Energies (a.u.)
    -----------------------

    Doubly Occupied:                                                      

       1A    -11.207370     2A    -11.205334     3A    -11.198162  
       4A    -11.196893     5A     -1.070736     6A     -0.980871  
       7A     -0.861094     8A     -0.795651     9A     -0.646182  
      10A     -0.587312    11A     -0.577721    12A     -0.571926  
      13A     -0.511092    14A     -0.505127    15A     -0.470479  
      16A     -0.470238    17A     -0.440367  

    Virtual:                                                              

      18A      0.032373    19A      0.037834    20A      0.039763  
      21A      0.039876    22A      0.058236    23A      0.059579  
      24A      0.060578    25A      0.061257    26A      0.075561  
      27A      0.083461    28A      0.103751    29A      0.112928  
      30A      0.122280    31A      0.130515    32A      0.140020  
      33A      0.142096    34A      0.143271    35A      0.143601  
      36A      0.148460    37A      0.161341    38A      0.165513  
      39A      0.168759    40A      0.174627    41A      0.194466  
      42A      0.201213    43A      0.220542    44A      0.220990  
      45A      0.241294    46A      0.250979    47A      0.256504  
      48A      0.264968    49A      0.282221    50A      0.282275  
      51A      0.291044    52A      0.309531    53A      0.319095  
      54A      0.337541    55A      0.343205    56A      0.343813  
      57A      0.356679    58A      0.359527    59A      0.360593  
      60A      0.365271    61A      0.369527    62A      0.371832  
      63A      0.384821    64A      0.389167    65A      0.390144  
      66A      0.392877    67A      0.393977    68A      0.395856  
      69A      0.406660    70A      0.409608    71A      0.414397  
      72A      0.434804    73A      0.438152    74A      0.444296  
      75A      0.447276    76A      0.463935    77A      0.465681  
      78A      0.466067    79A      0.467853    80A      0.487140  
      81A      0.490772    82A      0.500855    83A      0.511044  
      84A      0.514889    85A      0.519534    86A      0.520783  
      87A      0.524978    88A      0.534051    89A      0.541030  
      90A      0.542950    91A      0.551036    92A      0.554927  
      93A      0.557922    94A      0.580606    95A      0.585015  
      96A      0.588178    97A      0.589445    98A      0.619410  
      99A      0.621491   100A      0.634740   101A      0.640920  
     102A      0.650770   103A      0.675264   104A      0.681722  
     105A      0.698182   106A      0.715390   107A      0.749230  
     108A      0.774769   109A      0.790025   110A      0.819286  
     111A      0.826257   112A      0.827793   113A      0.832682  
     114A      0.837653   115A      0.845400   116A      0.855938  
     117A      0.868854   118A      0.879296   119A      0.886456  
     120A      0.889633   121A      0.896603   122A      0.896923  
     123A      0.917033   124A      0.920373   125A      0.921402  
     126A      0.926502   127A      0.933379   128A      0.941018  
     129A      0.950446   130A      0.963751   131A      0.968694  
     132A      0.970768   133A      0.981917   134A      0.982853  
     135A      0.991546   136A      1.017861   137A      1.025159  
     138A      1.041200   139A      1.049175   140A      1.054842  
     141A      1.073195   142A      1.080692   143A      1.085138  
     144A      1.087502   145A      1.105729   146A      1.106866  
     147A      1.120329   148A      1.144831   149A      1.152477  
     150A      1.159257   151A      1.161261   152A      1.168609  
     153A      1.187016   154A      1.200275   155A      1.211338  
     156A      1.240288   157A      1.241880   158A      1.246749  
     159A      1.257346   160A      1.260827   161A      1.263332  
     162A      1.271210   163A      1.278187   164A      1.290293  
     165A      1.299624   166A      1.306677   167A      1.312395  
     168A      1.322268   169A      1.334089   170A      1.357807  
     171A      1.364399   172A      1.392004   173A      1.397046  
     174A      1.423449   175A      1.435518   176A      1.457514  
     177A      1.475527   178A      1.481732   179A      1.483423  
     180A      1.487805   181A      1.512036   182A      1.529135  
     183A      1.539475   184A      1.548307   185A      1.575092  
     186A      1.597761   187A      1.598877   188A      1.622889  
     189A      1.624276   190A      1.641539   191A      1.650722  
     192A      1.676757   193A      1.678176   194A      1.697976  
     195A      1.703453   196A      1.708725   197A      1.709285  
     198A      1.719292   199A      1.724964   200A      1.730256  
     201A      1.735283   202A      1.753804   203A      1.754452  
     204A      1.766191   205A      1.769188   206A      1.770531  
     207A      1.785864   208A      1.805921   209A      1.818154  
     210A      1.847419   211A      1.847593   212A      1.879175  
     213A      1.904248   214A      1.917128   215A      1.945575  
     216A      1.971929   217A      1.972660   218A      1.976744  
     219A      1.978186   220A      2.005487   221A      2.015256  
     222A      2.019458   223A      2.038523   224A      2.046112  
     225A      2.055751   226A      2.063706   227A      2.074894  
     228A      2.092203   229A      2.098680   230A      2.140347  
     231A      2.167282   232A      2.194395   233A      2.197614  
     234A      2.223363   235A      2.227866   236A      2.263190  
     237A      2.273515   238A      2.284238   239A      2.288720  
     240A      2.304960   241A      2.321140   242A      2.349494  
     243A      2.372477   244A      2.372667   245A      2.383440  
     246A      2.411565   247A      2.442738   248A      2.460415  
     249A      2.474101   250A      2.479878   251A      2.501089  
     252A      2.554613   253A      2.585863   254A      2.610880  
     255A      2.621147   256A      2.674650   257A      2.783560  
     258A      2.860740   259A      2.944959   260A      3.028893  
     261A      3.173948   262A      3.252126   263A      3.278848  
     264A      3.361135   265A      3.400501   266A      3.416062  
     267A      3.437662   268A      3.449969   269A      3.473608  
     270A      3.476341   271A      3.530197   272A      3.555242  
     273A      3.575917   274A      3.579680   275A      3.590897  
     276A      3.599970   277A      3.628976   278A      3.673711  
     279A      3.674601   280A      3.695896   281A      3.696704  
     282A      3.703127   283A      3.716432   284A      3.734547  
     285A      3.750829   286A      3.781337   287A      3.799642  
     288A      3.800029   289A      3.830036   290A      3.847373  
     291A      3.852043   292A      3.860119   293A      3.883316  
     294A      3.884262   295A      3.916019   296A      3.929536  
     297A      3.954483   298A      3.984866   299A      3.988227  
     300A      4.006821   301A      4.008589   302A      4.013362  
     303A      4.033515   304A      4.036602   305A      4.066165  
     306A      4.070020   307A      4.075844   308A      4.103181  
     309A      4.162205   310A      4.185987   311A      4.200969  
     312A      4.229357   313A      4.232857   314A      4.253012  
     315A      4.257146   316A      4.278477   317A      4.284547  
     318A      4.287457   319A      4.317755   320A      4.320758  
     321A      4.362336   322A      4.369155   323A      4.389610  
     324A      4.448152   325A      4.460354   326A      4.475573  
     327A      4.537327   328A      4.548437   329A      4.552964  
     330A      4.576096   331A      4.608494   332A      4.642457  
     333A      4.668654   334A      4.678306   335A      4.692133  
     336A      4.720406   337A      4.741293   338A      4.758715  
     339A      4.774644   340A      4.809389   341A      4.822890  
     342A      4.874734   343A      4.879708   344A      4.890884  
     345A      4.900954   346A      4.925372   347A      4.948879  
     348A      4.977696   349A      4.979997   350A      5.013964  
     351A      5.015223   352A      5.051493   353A      5.064543  
     354A      5.117914   355A      5.136887   356A      5.155168  
     357A      5.201519   358A      5.215515   359A      5.224600  
     360A      5.255317   361A      5.263805   362A      5.282475  
     363A      5.295796   364A      5.341678   365A      5.351399  
     366A      5.376674   367A      5.380694   368A      5.423449  
     369A      5.447382   370A      5.448473   371A      5.468935  
     372A      5.498223   373A      5.523913   374A      5.531577  
     375A      5.547331   376A      5.571402   377A      5.605354  
     378A      5.643777   379A      5.654752   380A      5.687252  
     381A      5.716763   382A      5.744292   383A      5.766950  
     384A      5.800358   385A      5.824369   386A      5.878159  
     387A      5.894875   388A      5.959919   389A      5.994017  
     390A      6.047282   391A      6.056422   392A      6.137523  
     393A      6.159434   394A      6.177330   395A      6.226239  
     396A      6.238738   397A      6.276535   398A      6.338559  
     399A      6.346668   400A      6.376585   401A      6.419765  
     402A      6.503193   403A      6.562408   404A      6.637142  
     405A      6.757108   406A      6.777255   407A      6.820125  
     408A      6.849825   409A      6.878564   410A      6.979174  
     411A     18.027539   412A     18.224710   413A     18.888147  
     414A     20.036997  

    Final Occupation by Irrep:
              A 
    DOCC [    17 ]

  Energy converged.

  @DF-RHF Final Energy:  -157.34719096048303

   => Energetics <=

    Nuclear Repulsion Energy =            131.8513469679562604
    One-Electron Energy =                -471.8039667228945859
    Two-Electron Energy =                 182.6054287944552925
    DFT Exchange-Correlation Energy =       0.0000000000000000
    Empirical Dispersion Energy =           0.0000000000000000
    PCM Polarization Energy =               0.0000000000000000
    EFP Energy =                            0.0000000000000000
    Total Energy =                       -157.3471909604830330



Properties will be evaluated at   0.000000,   0.000000,   0.000000 Bohr

Properties computed using the SCF density matrix

  Nuclear Dipole Moment: (a.u.)
     X:     0.0019      Y:     0.0008      Z:    -0.0004

  Electronic Dipole Moment: (a.u.)
     X:    -0.0015      Y:    -0.0006      Z:     0.0001

  Dipole Moment: (a.u.)
     X:     0.0004      Y:     0.0002      Z:    -0.0003     Total:     0.0005

  Dipole Moment: (Debye)
     X:     0.0011      Y:     0.0005      Z:    -0.0007     Total:     0.0014


*** tstop() called on cpu-6-1.local at Wed Jun 14 14:20:40 2017
Module time:
	user time   =      77.22 seconds =       1.29 minutes
	system time =       1.00 seconds =       0.02 minutes
	total time  =         79 seconds =       1.32 minutes
Total time:
	user time   =      77.23 seconds =       1.29 minutes
	system time =       1.00 seconds =       0.02 minutes
	total time  =         79 seconds =       1.32 minutes

  //>>>>>>>>>>>>>>>>>>>>>>>>>>>>>>>>>>>//
  //               DFMP2               //
  //<<<<<<<<<<<<<<<<<<<<<<<<<<<<<<<<<<<//

   => Loading Basis Set <=

    Name: (AUG-CC-PVTZ AUX)
    Role: RIFIT
    Keyword: DF_BASIS_MP2
    atoms 1-3, 5-6, 8-9, 11-13 entry H          line    29 file /cbio/jclab/home/chayas/anaconda/envs/py35/share/psi4/basis/aug-cc-pvtz-ri.gbs 
    atoms 4, 7, 10, 14         entry C          line   147 file /cbio/jclab/home/chayas/anaconda/envs/py35/share/psi4/basis/aug-cc-pvtz-ri.gbs 

	 --------------------------------------------------------
	                          DF-MP2                         
	      2nd-Order Density-Fitted Moller-Plesset Theory     
	              RMP2 Wavefunction,   1 Threads             
	                                                         
	        Rob Parrish, Justin Turney, Andy Simmonett,      
	           Ed Hohenstein, and C. David Sherrill          
	 --------------------------------------------------------

   => Auxiliary Basis Set <=

  Basis Set: (AUG-CC-PVTZ AUX)
    Blend: AUG-CC-PVTZ-RI
    Number of shells: 252
    Number of basis function: 884
    Number of Cartesian functions: 1094
    Spherical Harmonics?: true
    Max angular momentum: 4

	 --------------------------------------------------------
	                 NBF =   414, NAUX =   884
	 --------------------------------------------------------
	   CLASS    FOCC     OCC    AOCC    AVIR     VIR    FVIR
	   PAIRS       0      17      17     397     397       0
	 --------------------------------------------------------


         ------------------------------------------------------------
                                     CPHF                           
                                  Rob Parrish                       
         ------------------------------------------------------------

  ==> Geometry <==

    Molecular point group: c1
    Full point group: C1

    Geometry (in Angstrom), charge = 0, multiplicity = 1:

       Center              X                  Y                   Z               Mass       
    ------------   -----------------  -----------------  -----------------  -----------------
           H         -2.066793382205    -0.309017352882    -0.592241323559     1.007825032070
           H         -2.365793382205     1.055982647118     0.458758676441     1.007825032070
           H         -1.925793382205     1.317982647118    -1.211241323559     1.007825032070
           C         -1.774793382205     0.692982647118    -0.357241323559    12.000000000000
           H          0.252206617795     1.348982647118    -0.635241323559     1.007825032070
           H         -0.185793382205     1.085982647118     1.035758676441     1.007825032070
           C         -0.285793382205     0.713982647118     0.037758676441    12.000000000000
           H         -0.251793382205    -1.349017352882     0.634758676441     1.007825032070
           H          0.187206617795    -1.086017352882    -1.035241323559     1.007825032070
           C          0.286206617795    -0.714017352882    -0.037241323559    12.000000000000
           H          2.171206617795    -1.685017352882     0.304758676441     1.007825032070
           H          1.874206617795    -0.321017352882     1.354758676441     1.007825032070
           H          2.313206617795    -0.058017352882    -0.315241323559     1.007825032070
           C          1.774206617795    -0.693017352882     0.356758676441    12.000000000000

  Nuclear repulsion =  131.851346967956260
  Reference energy  = -157.347190960483033

  ==> Basis Set <==

  Basis Set: AUG-CC-PVTZ
    Blend: AUG-CC-PVTZ
    Number of shells: 146
    Number of basis function: 414
    Number of Cartesian functions: 470
    Spherical Harmonics?: true
    Max angular momentum: 3

  ==> CGRSolver (by Rob Parrish) <==

   Number of roots    =         1
   Preconditioning    =    JACOBI
   Convergence cutoff =     1E-06
   Maximum iterations =       100

  ==> CPHFRHamiltonian (by Rob Parrish) <== 

  ==> DFJK: Density-Fitted J/K Matrices <==

    J tasked:                  Yes
    K tasked:                  Yes
    wK tasked:                  No
    OpenMP threads:              1
    Integrals threads:           1
    Memory (MB):              3576
    Algorithm:                Core
    Integral Cache:           NONE
    Schwarz Cutoff:          1E-12
    Fitting Condition:       1E-12

   => Auxiliary Basis Set <=

  Basis Set: (AUG-CC-PVTZ AUX)
    Blend: AUG-CC-PVTZ-JKFIT
    Number of shells: 260
    Number of basis function: 876
    Number of Cartesian functions: 1074
    Spherical Harmonics?: true
    Max angular momentum: 4

  ==> CPHF Iterations <==

  => Iterations <=

             Iter  Converged  Remaining    Residual
  CGR           1          0          1   8.176E-02
  CGR           2          0          1   1.315E-02
  CGR           3          0          1   3.418E-03
  CGR           4          0          1   8.050E-04
  CGR           5          0          1   1.184E-04
  CGR           6          0          1   2.152E-05
  CGR           7          0          1   4.137E-06
  CGR           8          0          1   1.109E-06
  CGR           9          1          0   2.899E-07

    CGRSolver converged.

  ==> DFCorrGrad: Density-Fitted Correlated Gradients <==

    OpenMP threads:              1
    Integrals threads:           1
    Memory (MB):              3576
    Schwarz Cutoff:          0E+00
    Fitting Condition:       1E-12

   => Auxiliary Basis Set <=

  Basis Set: (AUG-CC-PVTZ AUX)
    Blend: AUG-CC-PVTZ-JKFIT
    Number of shells: 260
    Number of basis function: 876
    Number of Cartesian functions: 1074
    Spherical Harmonics?: true
    Max angular momentum: 4

	-----------------------------------------------------------
	 ==================> DF-MP2 Energies <==================== 
	-----------------------------------------------------------
	 Reference Energy          =    -157.3471909604830330 [Eh]
	 Singles Energy            =      -0.0000000000000001 [Eh]
	 Same-Spin Energy          =      -0.1654857880258384 [Eh]
	 Opposite-Spin Energy      =      -0.6394841842866387 [Eh]
	 Correlation Energy        =      -0.8049699723124771 [Eh]
	 Total Energy              =    -158.1521609327955105 [Eh]
	-----------------------------------------------------------
	 ================> DF-SCS-MP2 Energies <================== 
	-----------------------------------------------------------
	 SCS Same-Spin Scale       =       0.3333333333333333 [-]
	 SCS Opposite-Spin Scale   =       1.2000000000000000 [-]
	 SCS Same-Spin Energy      =      -0.0551619293419461 [Eh]
	 SCS Opposite-Spin Energy  =      -0.7673810211439663 [Eh]
	 SCS Correlation Energy    =      -0.8225429504859125 [Eh]
	 SCS Total Energy          =    -158.1697339109689437 [Eh]
	-----------------------------------------------------------


  -Total Gradient:
     Atom            X                  Y                   Z
    ------   -----------------  -----------------  -----------------
       1        0.006631169062     0.009428112823     0.003154332092
       2        0.010211607541    -0.002740276333    -0.005111413032
       3        0.006855630054    -0.005742220750     0.009431098019
       4       -0.018822015486    -0.006212022725    -0.007099502259
       5       -0.009018979527    -0.007327879440     0.004718973726
       6       -0.004993646995    -0.005070484806    -0.010708971215
       7        0.016451144990     0.029824898691     0.009505093665
       8        0.008260774111     0.008168930034    -0.006386679070
       9        0.003595409427     0.005300820906     0.011636211513
      10       -0.024506571229    -0.031511549205    -0.011411708654
      11       -0.008468465344     0.010082074699    -0.000650564769
      12       -0.003206622007    -0.004046953622    -0.011005133180
      13       -0.007576911662    -0.006621603040     0.006228786668
      14        0.024587477069     0.006468152768     0.007699476496


*** tstop() called on cpu-6-1.local at Wed Jun 14 14:25:43 2017
Module time:
	user time   =     376.05 seconds =       6.27 minutes
	system time =       5.22 seconds =       0.09 minutes
	total time  =        382 seconds =       6.37 minutes
Total time:
	user time   =     376.06 seconds =       6.27 minutes
	system time =       5.22 seconds =       0.09 minutes
	total time  =        382 seconds =       6.37 minutes

			-----------------------------------------
			 OPTKING 2.0: for geometry optimizations 
			  - R.A. King,  Bethel University        
			-----------------------------------------

	Internal coordinates to be generated automatically.
	Detected frag 1 with atoms:  1 2 3 4 5 6 7 8 9 10 11 12 13 14
	---Fragment 1 Bond Connectivity---
	 1 : 4
	 2 : 4
	 3 : 4
	 4 : 1 2 3 7
	 5 : 7
	 6 : 7
	 7 : 4 5 6 10
	 8 : 10
	 9 : 10
	 10 : 7 8 9 14
	 11 : 14
	 12 : 14
	 13 : 14
	 14 : 10 11 12 13

	Assuming in current code that numbering for constraints corresponds to unified fragment.
	Fixed dihedral atom list: 
	    10     7     4     3
	---Fragment 1 Geometry and Gradient---
	 H          -3.9056734656       -0.5839581673       -1.1191739061
	 H          -4.4707015794        1.9955180041        0.8669282596
	 H          -3.6392220809        2.4906262509       -2.2889143824
	 C          -3.3538734348        1.3095474179       -0.6750882649
	 H           0.4766014365        2.5492077611       -1.2004321298
	 H          -0.3510986097        2.0522097881        1.9573002382
	 C          -0.5400712230        1.3492316667        0.0713535576
	 H          -0.4758205344       -2.5492733455        1.1995200589
	 H           0.3537692379       -2.0522753725       -1.9563225830
	 C           0.5408521251       -1.3492972511       -0.0703759024
	 H           4.1029858855       -3.1842213261        0.5759104351
	 H           3.5417372241       -0.6066348809        2.5601228746
	 H           4.3713269964       -0.1096369079       -0.5957197673
	 C           3.3527646108       -1.3096130023        0.6741761940
	             0.0066311691        0.0094281128        0.0031543321
	             0.0102116075       -0.0027402763       -0.0051114130
	             0.0068556301       -0.0057422207        0.0094310980
	            -0.0188220155       -0.0062120227       -0.0070995023
	            -0.0090189795       -0.0073278794        0.0047189737
	            -0.0049936470       -0.0050704848       -0.0107089712
	             0.0164511450        0.0298248987        0.0095050937
	             0.0082607741        0.0081689300       -0.0063866791
	             0.0035954094        0.0053008209        0.0116362115
	            -0.0245065712       -0.0315115492       -0.0114117087
	            -0.0084684653        0.0100820747       -0.0006505648
	            -0.0032066220       -0.0040469536       -0.0110051332
	            -0.0075769117       -0.0066216030        0.0062287867
	             0.0245874771        0.0064681528        0.0076994765

	Previous optimization step data not found.  Starting new optimization.

	---Fragment 1 Intrafragment Coordinates---
	 - Coordinate -           - BOHR/RAD -       - ANG/DEG -
	 R(1,4)           =         2.021648	       1.069810
	 R(2,4)           =         2.023778	       1.070937
	 R(3,4)           =         2.020100	       1.068991
	 R(4,7)           =         2.911397	       1.540645
	 R(5,7)           =         2.022623	       1.070326
	 R(6,7)           =         2.021555	       1.069761
	 R(7,10)          =         2.910419	       1.540128
	 R(8,10)          =         2.021436	       1.069698
	 R(9,10)          =         2.021379	       1.069668
	 R(10,14)         =         2.909087	       1.539422
	 R(11,14)         =         2.021545	       1.069756
	 R(12,14)         =         2.021555	       1.069761
	 R(13,14)         =         2.022387	       1.070201
	 B(1,4,2)         =         1.911572	     109.525035
	 B(1,4,3)         =         1.910876	     109.485159
	 B(1,4,7)         =         1.910154	     109.443789
	 B(2,4,3)         =         1.909837	     109.425609
	 B(2,4,7)         =         1.910683	     109.474097
	 B(3,4,7)         =         1.910675	     109.473634
	 B(4,7,5)         =         1.909937	     109.431343
	 B(4,7,6)         =         1.911630	     109.528316
	 B(4,7,10)        =         1.911154	     109.501062
	 B(5,7,6)         =         1.910605	     109.469614
	 B(5,7,10)        =         1.910047	     109.437654
	 B(6,7,10)        =         1.910425	     109.459295
	 B(7,10,8)        =         1.910303	     109.452301
	 B(7,10,9)        =         1.910824	     109.482155
	 B(7,10,14)       =         1.911213	     109.504437
	 B(8,10,9)        =         1.910417	     109.458846
	 B(8,10,14)       =         1.910766	     109.478806
	 B(9,10,14)       =         1.910276	     109.450772
	 B(10,14,11)      =         1.910943	     109.488965
	 B(10,14,12)      =         1.911204	     109.503926
	 B(10,14,13)      =         1.911557	     109.524173
	 B(11,14,12)      =         1.910410	     109.458432
	 B(11,14,13)      =         1.910054	     109.438058
	 B(12,14,13)      =         1.909629	     109.413709
	 D(1,4,7,5)       =         2.093586	     119.953614
	 D(1,4,7,6)       =        -2.095055	    -120.037834
	 D(1,4,7,10)      =         0.000015	       0.000874
	 D(2,4,7,5)       =        -2.094317	    -119.995517
	 D(2,4,7,6)       =         0.000227	       0.013035
	 D(2,4,7,10)      =         2.095298	     120.051742
	 D(3,4,7,5)       =        -0.000840	      -0.048136
	 D(3,4,7,6)       =         2.093704	     119.960416
	 D(3,4,7,10)      =        -2.094410	    -120.000877
	 D(4,7,10,8)      =        -1.047368	     -60.009777
	 D(4,7,10,9)      =         1.046677	      59.970178
	 D(4,7,10,14)     =         3.141107	     179.972182
	 D(5,7,10,8)      =        -3.140871	    -179.958653
	 D(5,7,10,9)      =        -1.046826	     -59.978698
	 D(5,7,10,14)     =         1.047604	      60.023306
	 D(6,7,10,8)      =         1.048439	      60.071149
	 D(6,7,10,9)      =        -3.140701	    -179.948896
	 D(6,7,10,14)     =        -1.046271	     -59.946893
	 D(7,10,14,11)    =         3.141408	     179.989448
	 D(7,10,14,12)    =         1.046747	      59.974196
	 D(7,10,14,13)    =        -1.047335	     -60.007849
	 D(8,10,14,11)    =         1.046982	      59.987626
	 D(8,10,14,12)    =        -1.047680	     -60.027626
	 D(8,10,14,13)    =         3.141424	     179.990329
	 D(9,10,14,11)    =        -1.047012	     -59.989345
	 D(9,10,14,12)    =         3.141512	     179.995403
	 D(9,10,14,13)    =         1.047431	      60.013359

	Current energy   :      -158.1521609328

	Generating empirical Hessian (Schlegel '84) for each fragment.
	Adding user-defined constraint: Fragment 1; Coordinate 46:
		Value =    -2.094410; Fixed value    =    -2.094395
		Force =     0.000008; Force constant =     0.500000
	Removing off-diagonal coupling between coordinate 46 and others.
	Taking RFO optimization step.
	Going to follow RFO solution 1.
	Using RFO vector 1.

	Determining step-restricting scale parameter for RS-RFO.
	Maximum step size allowed    0.10000

	 Iter      |step|        alpha        rfo_root  
	------------------------------------------------
	    0     0.20408       1.00000           1
	    1     0.15193       8.27202           1
	    2     0.12025      21.48932           1
	    3     0.10471      34.64361           1
	    4     0.10035      39.76820           1
	    5     0.10000      40.21394           1
	------------------------------------------------
	Norm of target step-size    0.10000
	Projected energy change by RFO approximation:        -0.0047195011

	Back-transformation to cartesian coordinates...
	Could not converge backtransformation.
	Using first guess instead.

	--- Internal Coordinate Step in ANG or DEG, aJ/ANG or AJ/DEG ---
	 ---------------------------------------------------------------------------
	   Coordinate                Previous        Force       Change         New 
	   ----------                --------       ------       ------       ------
	    1 R(1,4)          =      1.069810     0.093372     0.011110     1.080920
	    2 R(2,4)          =      1.070937     0.086167     0.010146     1.081083
	    3 R(3,4)          =      1.068991     0.097711     0.011452     1.080443
	    4 R(4,7)          =      1.540645     0.039028     0.005517     1.546162
	    5 R(5,7)          =      1.070326     0.097613     0.011418     1.081744
	    6 R(6,7)          =      1.069761     0.100682     0.011761     1.081522
	    7 R(7,10)         =      1.540128    -0.072068    -0.009801     1.530326
	    8 R(8,10)         =      1.069698     0.107237     0.012508     1.082205
	    9 R(9,10)         =      1.069668     0.107374     0.012523     1.082191
	   10 R(10,14)        =      1.539422    -0.047942    -0.006579     1.532843
	   11 R(11,14)        =      1.069756     0.102658     0.012005     1.081760
	   12 R(12,14)        =      1.069761     0.098650     0.011547     1.081308
	   13 R(13,14)        =      1.070201     0.096032     0.011252     1.081453
	   14 B(1,4,2)        =    109.525035    -0.000354    -0.809496   108.715539
	   15 B(1,4,3)        =    109.485159    -0.000346    -0.780610   108.704549
	   16 B(1,4,7)        =    109.443789     0.000233     0.501281   109.945070
	   17 B(2,4,3)        =    109.425609    -0.000411    -0.897032   108.528577
	   18 B(2,4,7)        =    109.474097     0.000440     0.973499   110.447597
	   19 B(3,4,7)        =    109.473634     0.000439     0.976519   110.450153
	   20 B(4,7,5)        =    109.431343    -0.000078     0.020627   109.451969
	   21 B(4,7,6)        =    109.528316    -0.000087    -0.007296   109.521020
	   22 B(4,7,10)       =    109.501062     0.000776     1.559748   111.060810
	   23 B(5,7,6)        =    109.469614    -0.000003    -0.284533   109.185081
	   24 B(5,7,10)       =    109.437654    -0.000302    -0.641431   108.796223
	   25 B(6,7,10)       =    109.459295    -0.000306    -0.663594   108.795701
	   26 B(7,10,8)       =    109.452301    -0.000240    -0.485718   108.966582
	   27 B(7,10,9)       =    109.482155    -0.000245    -0.498139   108.984017
	   28 B(7,10,14)      =    109.504437     0.000708     1.416123   110.920560
	   29 B(8,10,9)       =    109.458846     0.000025    -0.167102   109.291744
	   30 B(8,10,14)      =    109.478806    -0.000126    -0.143703   109.335103
	   31 B(9,10,14)      =    109.450772    -0.000121    -0.131065   109.319707
	   32 B(10,14,11)     =    109.488965     0.000418     0.946201   110.435165
	   33 B(10,14,12)     =    109.503926     0.000118     0.247950   109.751875
	   34 B(10,14,13)     =    109.524173     0.000112     0.233934   109.758107
	   35 B(11,14,12)     =    109.458432    -0.000245    -0.525884   108.932548
	   36 B(11,14,13)     =    109.438058    -0.000242    -0.519646   108.918412
	   37 B(12,14,13)     =    109.413709    -0.000162    -0.397347   109.016362
	   38 D(1,4,7,5)      =    119.953614     0.000013     0.176618   120.130232
	   39 D(1,4,7,6)      =   -120.037834    -0.000011    -0.163501  -120.201335
	   40 D(1,4,7,10)     =      0.000874    -0.000000    -0.014272    -0.013398
	   41 D(2,4,7,5)      =   -119.995517     0.000008     0.099037  -119.896481
	   42 D(2,4,7,6)      =      0.013035    -0.000016    -0.241083    -0.228048
	   43 D(2,4,7,10)     =    120.051742    -0.000005    -0.091853   119.959889
	   44 D(3,4,7,5)      =     -0.048136     0.000015     0.217104     0.168967
	   45 D(3,4,7,6)      =    119.960416    -0.000009    -0.123015   119.837400
	   46 D(3,4,7,10)     =   -120.000877     0.000003     0.026214  -119.974663
	   47 D(4,7,10,8)     =    -60.009777     0.000031     0.410517   -59.599260
	   48 D(4,7,10,9)     =     59.970178    -0.000030    -0.381975    59.588203
	   49 D(4,7,10,14)    =    179.972182     0.000001     0.018377   179.990559
	   50 D(5,7,10,8)     =   -179.958653    -0.000013    -0.172767  -180.131419
	   51 D(5,7,10,9)     =    -59.978698    -0.000074    -0.965259   -60.943957
	   52 D(5,7,10,14)    =     60.023306    -0.000043    -0.564906    59.458399
	   53 D(6,7,10,8)     =     60.071149     0.000073     0.946996    61.018145
	   54 D(6,7,10,9)     =   -179.948896     0.000012     0.154504  -179.794392
	   55 D(6,7,10,14)    =    -59.946893     0.000043     0.554856   -59.392036
	   56 D(7,10,14,11)   =    179.989448     0.000000     0.003053   179.992501
	   57 D(7,10,14,12)   =     59.974196    -0.000006    -0.092821    59.881375
	   58 D(7,10,14,13)   =    -60.007849     0.000007     0.097931   -59.909918
	   59 D(8,10,14,11)   =     59.987626    -0.000014    -0.186303    59.801323
	   60 D(8,10,14,12)   =    -60.027626    -0.000020    -0.282178   -60.309804
	   61 D(8,10,14,13)   =    179.990329    -0.000007    -0.091425   179.898904
	   62 D(9,10,14,11)   =    -59.989345     0.000014     0.184713   -59.804631
	   63 D(9,10,14,12)   =    179.995403     0.000007     0.088839   180.084242
	   64 D(9,10,14,13)   =     60.013359     0.000020     0.279591    60.292950
	 ---------------------------------------------------------------------------
	Successfully symmetrized geometry.
	 Forces used to impose fixed constraints are not included.
	  Forces zeroed: 46 

  ==> Convergence Check <==

  Measures of convergence in internal coordinates in au.
  Criteria marked as inactive (o), active & met (*), and active & unmet ( ).
  --------------------------------------------------------------------------------------------- ~
   Step     Total Energy     Delta E     MAX Force     RMS Force      MAX Disp      RMS Disp    ~
  --------------------------------------------------------------------------------------------- ~
    Convergence Criteria    1.00e-06 *    3.00e-04 *             o    1.20e-03 *             o  ~
  --------------------------------------------------------------------------------------------- ~
      1    -158.15216093   -1.58e+02      1.30e-02      5.72e-03 o    2.72e-02      1.25e-02 o  ~
  ---------------------------------------------------------------------------------------------

	Writing optimization data to binary file.
	Structure for next step:
	Cartesian Geometry (in Angstrom)
	    H    -2.1010301240  -0.3049652191  -0.6004290027
	    H    -2.3921828664   1.0672592165   0.4575273526
	    H    -1.9511448744   1.3316402884  -1.2199843401
	    C    -1.7858505727   0.7003681404  -0.3588621876
	    H     0.2585533249   1.3443034841  -0.6426290442
	    H    -0.1833732498   1.0788994346   1.0435048221
	    C    -0.2906152725   0.7041185553   0.0346800237
	    H    -0.2467291046  -1.3487227832   0.6458431388
	    H     0.1968454536  -1.0829691812  -1.0419863428
	    C     0.2993075088  -0.7063271891  -0.0326405230
	    H     2.1903853807  -1.6991439186   0.3077170295
	    H     1.8918937868  -0.3248855522   1.3663898866
	    H     2.3342686376  -0.0599539317  -0.3173388385
	    C     1.7815646212  -0.6988642846   0.3578294957
			--------------------------
			 OPTKING Finished Execution 
			--------------------------

    Structure for next step:
    Molecular point group: c1
    Full point group: C1

    Geometry (in Angstrom), charge = 0, multiplicity = 1:

    H           -2.101896922037    -0.304844966557    -0.600612987669
    H           -2.393049664432     1.067379469044     0.457343367547
    H           -1.952011672436     1.331760540986    -1.220168325159
    C           -1.786717370722     0.700488392938    -0.359046172627
    H            0.257686526834     1.344423736663    -0.642813029202
    H           -0.184240047806     1.079019687195     1.043320837059
    C           -0.291482070540     0.704238807898     0.034496038717
    H           -0.247595902596    -1.348602530629     0.645659153787
    H            0.195978655542    -1.082848928650    -1.042170327862
    C            0.298440710786    -0.706206936506    -0.032824507974
    H            2.189518582708    -1.699023666062     0.307533044477
    H            1.891026988739    -0.324765299604     1.366205901630
    H            2.333401839628    -0.059833679160    -0.317522823508
    C            1.780697823171    -0.698744031992     0.357645510726

gradient() will perform analytic gradient computation.

*** tstart() called on cpu-6-1.local
*** at Wed Jun 14 14:25:44 2017

    SCF Algorithm Type (re)set to DF.

*** tstart() called on cpu-6-1.local
*** at Wed Jun 14 14:25:44 2017

   => Loading Basis Set <=

    Name: AUG-CC-PVTZ
    Role: ORBITAL
    Keyword: BASIS
    atoms 1-3, 5-6, 8-9, 11-13 entry H          line    34 file /cbio/jclab/home/chayas/anaconda/envs/py35/share/psi4/basis/aug-cc-pvtz.gbs 
    atoms 4, 7, 10, 14         entry C          line   221 file /cbio/jclab/home/chayas/anaconda/envs/py35/share/psi4/basis/aug-cc-pvtz.gbs 


         ---------------------------------------------------------
                                   SCF
            by Justin Turney, Rob Parrish, and Andy Simmonett
                              RHF Reference
                        1 Threads,   4768 MiB Core
         ---------------------------------------------------------

  ==> Geometry <==

    Molecular point group: c1
    Full point group: C1

    Geometry (in Angstrom), charge = 0, multiplicity = 1:

       Center              X                  Y                   Z               Mass       
    ------------   -----------------  -----------------  -----------------  -----------------
           H         -2.101896922037    -0.304844966557    -0.600612987669     1.007825032070
           H         -2.393049664432     1.067379469044     0.457343367547     1.007825032070
           H         -1.952011672436     1.331760540986    -1.220168325159     1.007825032070
           C         -1.786717370722     0.700488392938    -0.359046172627    12.000000000000
           H          0.257686526834     1.344423736663    -0.642813029202     1.007825032070
           H         -0.184240047806     1.079019687195     1.043320837059     1.007825032070
           C         -0.291482070540     0.704238807898     0.034496038717    12.000000000000
           H         -0.247595902596    -1.348602530629     0.645659153787     1.007825032070
           H          0.195978655542    -1.082848928650    -1.042170327862     1.007825032070
           C          0.298440710786    -0.706206936506    -0.032824507974    12.000000000000
           H          2.189518582708    -1.699023666062     0.307533044477     1.007825032070
           H          1.891026988739    -0.324765299604     1.366205901630     1.007825032070
           H          2.333401839628    -0.059833679160    -0.317522823508     1.007825032070
           C          1.780697823171    -0.698744031992     0.357645510726    12.000000000000

  Running in c1 symmetry.

  Rotational constants: A =      0.77702  B =      0.12285  C =      0.11513 [cm^-1]
  Rotational constants: A =  23294.43737  B =   3682.90211  C =   3451.64122 [MHz]
  Nuclear repulsion =  131.247428721833558

  Charge       = 0
  Multiplicity = 1
  Electrons    = 34
  Nalpha       = 17
  Nbeta        = 17

  ==> Algorithm <==

  SCF Algorithm Type is DF.
  DIIS enabled.
  MOM disabled.
  Fractional occupation disabled.
  Guess Type is READ.
  Energy threshold   = 1.00e-10
  Density threshold  = 1.00e-10
  Integral threshold = 0.00e+00

  ==> Primary Basis <==

  Basis Set: AUG-CC-PVTZ
    Blend: AUG-CC-PVTZ
    Number of shells: 146
    Number of basis function: 414
    Number of Cartesian functions: 470
    Spherical Harmonics?: true
    Max angular momentum: 3

   => Loading Basis Set <=

    Name: (AUG-CC-PVTZ AUX)
    Role: JKFIT
    Keyword: DF_BASIS_SCF
    atoms 1-3, 5-6, 8-9, 11-13 entry H          line    69 file /cbio/jclab/home/chayas/anaconda/envs/py35/share/psi4/basis/aug-cc-pvtz-jkfit.gbs 
    atoms 4, 7, 10, 14         entry C          line   161 file /cbio/jclab/home/chayas/anaconda/envs/py35/share/psi4/basis/aug-cc-pvtz-jkfit.gbs 

  Reading orbitals from file 180, no projection.

  ==> Pre-Iterations <==

   -------------------------------------------------------
    Irrep   Nso     Nmo     Nalpha   Nbeta   Ndocc  Nsocc
   -------------------------------------------------------
     A        414     414       0       0       0       0
   -------------------------------------------------------
    Total     414     414      17      17      17       0
   -------------------------------------------------------

  ==> Integral Setup <==

  ==> DFJK: Density-Fitted J/K Matrices <==

    J tasked:                  Yes
    K tasked:                  Yes
    wK tasked:                  No
    OpenMP threads:              1
    Integrals threads:           1
    Memory (MB):              3576
    Algorithm:                Core
    Integral Cache:           NONE
    Schwarz Cutoff:          1E-12
    Fitting Condition:       1E-12

   => Auxiliary Basis Set <=

  Basis Set: (AUG-CC-PVTZ AUX)
    Blend: AUG-CC-PVTZ-JKFIT
    Number of shells: 260
    Number of basis function: 876
    Number of Cartesian functions: 1074
    Spherical Harmonics?: true
    Max angular momentum: 4

  Minimum eigenvalue in the overlap matrix is 8.9263516115E-06.
  Using Symmetric Orthogonalization.

  SCF Guess: Orbitals guess was supplied from a previous computation.

  ==> Iterations <==

                           Total Energy        Delta E     RMS |[F,P]|

   @DF-RHF iter   0:  -157.27537851741229   -1.57275e+02   1.21763e-04 
   @DF-RHF iter   1:  -157.34983181577894   -7.44533e-02   4.82110e-05 
   @DF-RHF iter   2:  -157.35006820461018   -2.36389e-04   2.48715e-05 DIIS
   @DF-RHF iter   3:  -157.35011852918285   -5.03246e-05   2.73142e-06 DIIS
   @DF-RHF iter   4:  -157.35011987262664   -1.34344e-06   7.38786e-07 DIIS
   @DF-RHF iter   5:  -157.35011995588775   -8.32611e-08   2.48472e-07 DIIS
   @DF-RHF iter   6:  -157.35011996558080   -9.69305e-09   4.37078e-08 DIIS
   @DF-RHF iter   7:  -157.35011996599991   -4.19107e-10   7.08581e-09 DIIS
   @DF-RHF iter   8:  -157.35011996600880   -8.89600e-12   1.56295e-09 DIIS
   @DF-RHF iter   9:  -157.35011996601150   -2.70006e-12   3.51353e-10 DIIS
   @DF-RHF iter  10:  -157.35011996601096    5.40012e-13   7.29464e-11 DIIS

  ==> Post-Iterations <==

    Orbital Energies (a.u.)
    -----------------------

    Doubly Occupied:                                                      

       1A    -11.210462     2A    -11.209451     3A    -11.203282  
       4A    -11.202685     5A     -1.069863     6A     -0.978403  
       7A     -0.860730     8A     -0.790203     9A     -0.643404  
      10A     -0.583801    11A     -0.573599    12A     -0.572619  
      13A     -0.509888    14A     -0.502226    15A     -0.466477  
      16A     -0.465559    17A     -0.447873  

    Virtual:                                                              

      18A      0.032364    19A      0.037629    20A      0.039880  
      21A      0.039909    22A      0.058169    23A      0.059556  
      24A      0.060544    25A      0.061426    26A      0.075514  
      27A      0.083329    28A      0.103654    29A      0.112807  
      30A      0.122280    31A      0.130649    32A      0.140020  
      33A      0.141611    34A      0.143064    35A      0.143427  
      36A      0.148444    37A      0.161414    38A      0.165879  
      39A      0.168747    40A      0.174499    41A      0.194731  
      42A      0.201066    43A      0.219805    44A      0.221832  
      45A      0.239919    46A      0.249930    47A      0.254577  
      48A      0.263834    49A      0.280359    50A      0.281103  
      51A      0.290052    52A      0.309931    53A      0.318840  
      54A      0.337290    55A      0.342371    56A      0.343568  
      57A      0.355768    58A      0.358234    59A      0.359263  
      60A      0.363753    61A      0.369131    62A      0.370616  
      63A      0.384185    64A      0.388252    65A      0.389236  
      66A      0.391982    67A      0.392580    68A      0.395441  
      69A      0.405897    70A      0.408745    71A      0.413745  
      72A      0.433373    73A      0.436352    74A      0.440871  
      75A      0.446624    76A      0.461224    77A      0.462377  
      78A      0.465398    79A      0.465501    80A      0.486891  
      81A      0.489447    82A      0.498745    83A      0.509003  
      84A      0.514263    85A      0.517500    86A      0.518554  
      87A      0.524789    88A      0.532408    89A      0.538764  
      90A      0.542920    91A      0.550332    92A      0.552483  
      93A      0.556917    94A      0.580255    95A      0.585308  
      96A      0.587038    97A      0.589639    98A      0.617248  
      99A      0.618659   100A      0.635058   101A      0.638798  
     102A      0.648788   103A      0.673485   104A      0.679875  
     105A      0.699765   106A      0.713735   107A      0.747600  
     108A      0.773801   109A      0.788700   110A      0.817788  
     111A      0.825470   112A      0.827396   113A      0.830217  
     114A      0.838715   115A      0.843284   116A      0.854786  
     117A      0.867531   118A      0.874819   119A      0.883267  
     120A      0.889713   121A      0.895905   122A      0.897657  
     123A      0.916449   124A      0.917595   125A      0.919218  
     126A      0.925214   127A      0.928649   128A      0.939553  
     129A      0.946740   130A      0.961206   131A      0.965629  
     132A      0.970006   133A      0.980979   134A      0.981433  
     135A      0.989484   136A      1.017365   137A      1.026555  
     138A      1.037883   139A      1.046291   140A      1.050536  
     141A      1.071164   142A      1.078895   143A      1.081772  
     144A      1.084685   145A      1.100641   146A      1.105446  
     147A      1.119082   148A      1.141820   149A      1.148750  
     150A      1.157163   151A      1.158514   152A      1.164227  
     153A      1.182211   154A      1.193530   155A      1.208515  
     156A      1.235777   157A      1.237986   158A      1.243675  
     159A      1.252391   160A      1.256483   161A      1.257588  
     162A      1.268640   163A      1.274499   164A      1.285481  
     165A      1.296331   166A      1.302023   167A      1.308038  
     168A      1.319271   169A      1.331230   170A      1.351543  
     171A      1.361795   172A      1.386647   173A      1.393353  
     174A      1.419975   175A      1.432046   176A      1.450867  
     177A      1.473032   178A      1.476956   179A      1.479758  
     180A      1.484865   181A      1.508820   182A      1.527428  
     183A      1.536752   184A      1.540294   185A      1.576899  
     186A      1.592943   187A      1.598071   188A      1.613106  
     189A      1.616658   190A      1.636271   191A      1.644110  
     192A      1.670186   193A      1.672493   194A      1.693094  
     195A      1.699211   196A      1.703739   197A      1.706166  
     198A      1.719213   199A      1.722303   200A      1.727412  
     201A      1.734258   202A      1.749958   203A      1.750006  
     204A      1.760087   205A      1.764682   206A      1.766329  
     207A      1.784986   208A      1.805358   209A      1.816632  
     210A      1.843505   211A      1.849688   212A      1.874587  
     213A      1.900170   214A      1.915362   215A      1.942645  
     216A      1.962265   217A      1.967646   218A      1.968264  
     219A      1.973126   220A      1.998347   221A      2.005671  
     222A      2.015912   223A      2.032678   224A      2.042019  
     225A      2.046320   226A      2.056491   227A      2.068319  
     228A      2.085932   229A      2.092455   230A      2.128135  
     231A      2.160740   232A      2.184452   233A      2.195901  
     234A      2.218176   235A      2.223760   236A      2.258326  
     237A      2.265875   238A      2.273042   239A      2.280943  
     240A      2.299690   241A      2.312548   242A      2.333152  
     243A      2.364797   244A      2.366200   245A      2.383703  
     246A      2.411193   247A      2.433713   248A      2.459237  
     249A      2.461535   250A      2.472320   251A      2.497369  
     252A      2.549074   253A      2.589961   254A      2.612681  
     255A      2.620225   256A      2.673931   257A      2.783631  
     258A      2.866780   259A      2.957845   260A      3.043929  
     261A      3.170503   262A      3.248722   263A      3.277430  
     264A      3.366135   265A      3.395954   266A      3.417022  
     267A      3.444850   268A      3.448502   269A      3.474057  
     270A      3.474627   271A      3.522811   272A      3.558323  
     273A      3.571440   274A      3.585518   275A      3.589973  
     276A      3.601269   277A      3.628748   278A      3.664715  
     279A      3.668770   280A      3.684497   281A      3.691223  
     282A      3.698482   283A      3.715510   284A      3.730433  
     285A      3.752252   286A      3.785516   287A      3.795762  
     288A      3.798937   289A      3.828936   290A      3.839375  
     291A      3.846463   292A      3.857098   293A      3.879487  
     294A      3.882175   295A      3.912528   296A      3.913051  
     297A      3.949147   298A      3.975392   299A      3.986012  
     300A      3.995903   301A      3.998683   302A      4.002395  
     303A      4.020193   304A      4.024784   305A      4.056128  
     306A      4.064009   307A      4.072105   308A      4.093219  
     309A      4.157618   310A      4.180648   311A      4.194850  
     312A      4.215361   313A      4.222930   314A      4.238356  
     315A      4.239492   316A      4.260855   317A      4.267551  
     318A      4.274986   319A      4.306642   320A      4.309141  
     321A      4.353587   322A      4.357283   323A      4.378439  
     324A      4.428723   325A      4.449851   326A      4.457946  
     327A      4.509931   328A      4.531760   329A      4.544970  
     330A      4.552560   331A      4.595152   332A      4.621440  
     333A      4.646973   334A      4.662310   335A      4.682964  
     336A      4.701149   337A      4.725302   338A      4.738224  
     339A      4.756670   340A      4.804371   341A      4.808488  
     342A      4.859178   343A      4.863465   344A      4.872962  
     345A      4.875476   346A      4.905176   347A      4.933721  
     348A      4.963170   349A      4.963238   350A      4.995914  
     351A      5.003693   352A      5.028450   353A      5.043750  
     354A      5.092849   355A      5.124694   356A      5.127933  
     357A      5.171354   358A      5.197819   359A      5.205669  
     360A      5.234011   361A      5.243634   362A      5.257214  
     363A      5.269906   364A      5.323711   365A      5.323815  
     366A      5.344567   367A      5.361245   368A      5.404734  
     369A      5.419009   370A      5.420430   371A      5.447946  
     372A      5.469494   373A      5.498454   374A      5.515015  
     375A      5.518534   376A      5.549102   377A      5.570344  
     378A      5.608704   379A      5.613524   380A      5.660918  
     381A      5.691187   382A      5.728257   383A      5.747956  
     384A      5.781024   385A      5.783345   386A      5.833238  
     387A      5.852644   388A      5.927977   389A      5.958458  
     390A      6.015962   391A      6.022320   392A      6.092307  
     393A      6.135142   394A      6.141400   395A      6.191309  
     396A      6.192186   397A      6.237780   398A      6.301968  
     399A      6.305080   400A      6.344048   401A      6.382163  
     402A      6.471997   403A      6.558168   404A      6.607426  
     405A      6.746290   406A      6.773304   407A      6.816888  
     408A      6.844627   409A      6.872236   410A      6.981921  
     411A     17.844327   412A     18.124763   413A     18.775118  
     414A     19.786405  

    Final Occupation by Irrep:
              A 
    DOCC [    17 ]

  Energy converged.

  @DF-RHF Final Energy:  -157.35011996601096

   => Energetics <=

    Nuclear Repulsion Energy =            131.2474287218335576
    One-Electron Energy =                -470.6140484959632886
    Two-Electron Energy =                 182.0164998081187662
    DFT Exchange-Correlation Energy =       0.0000000000000000
    Empirical Dispersion Energy =           0.0000000000000000
    PCM Polarization Energy =               0.0000000000000000
    EFP Energy =                            0.0000000000000000
    Total Energy =                       -157.3501199660109648



Properties will be evaluated at   0.000000,   0.000000,   0.000000 Bohr

Properties computed using the SCF density matrix

  Nuclear Dipole Moment: (a.u.)
     X:    -0.0105      Y:     0.0025      Z:    -0.0030

  Electronic Dipole Moment: (a.u.)
     X:     0.0109      Y:    -0.0032      Z:     0.0028

  Dipole Moment: (a.u.)
     X:     0.0004      Y:    -0.0007      Z:    -0.0002     Total:     0.0009

  Dipole Moment: (Debye)
     X:     0.0010      Y:    -0.0019      Z:    -0.0004     Total:     0.0022


*** tstop() called on cpu-6-1.local at Wed Jun 14 14:26:42 2017
Module time:
	user time   =      57.86 seconds =       0.96 minutes
	system time =       0.54 seconds =       0.01 minutes
	total time  =         58 seconds =       0.97 minutes
Total time:
	user time   =     433.97 seconds =       7.23 minutes
	system time =       5.84 seconds =       0.10 minutes
	total time  =        441 seconds =       7.35 minutes

  //>>>>>>>>>>>>>>>>>>>>>>>>>>>>>>>>>>>//
  //               DFMP2               //
  //<<<<<<<<<<<<<<<<<<<<<<<<<<<<<<<<<<<//

   => Loading Basis Set <=

    Name: (AUG-CC-PVTZ AUX)
    Role: RIFIT
    Keyword: DF_BASIS_MP2
    atoms 1-3, 5-6, 8-9, 11-13 entry H          line    29 file /cbio/jclab/home/chayas/anaconda/envs/py35/share/psi4/basis/aug-cc-pvtz-ri.gbs 
    atoms 4, 7, 10, 14         entry C          line   147 file /cbio/jclab/home/chayas/anaconda/envs/py35/share/psi4/basis/aug-cc-pvtz-ri.gbs 

	 --------------------------------------------------------
	                          DF-MP2                         
	      2nd-Order Density-Fitted Moller-Plesset Theory     
	              RMP2 Wavefunction,   1 Threads             
	                                                         
	        Rob Parrish, Justin Turney, Andy Simmonett,      
	           Ed Hohenstein, and C. David Sherrill          
	 --------------------------------------------------------

   => Auxiliary Basis Set <=

  Basis Set: (AUG-CC-PVTZ AUX)
    Blend: AUG-CC-PVTZ-RI
    Number of shells: 252
    Number of basis function: 884
    Number of Cartesian functions: 1094
    Spherical Harmonics?: true
    Max angular momentum: 4

	 --------------------------------------------------------
	                 NBF =   414, NAUX =   884
	 --------------------------------------------------------
	   CLASS    FOCC     OCC    AOCC    AVIR     VIR    FVIR
	   PAIRS       0      17      17     397     397       0
	 --------------------------------------------------------


         ------------------------------------------------------------
                                     CPHF                           
                                  Rob Parrish                       
         ------------------------------------------------------------

  ==> Geometry <==

    Molecular point group: c1
    Full point group: C1

    Geometry (in Angstrom), charge = 0, multiplicity = 1:

       Center              X                  Y                   Z               Mass       
    ------------   -----------------  -----------------  -----------------  -----------------
           H         -2.101896922037    -0.304844966557    -0.600612987669     1.007825032070
           H         -2.393049664432     1.067379469044     0.457343367547     1.007825032070
           H         -1.952011672436     1.331760540986    -1.220168325159     1.007825032070
           C         -1.786717370722     0.700488392938    -0.359046172627    12.000000000000
           H          0.257686526834     1.344423736663    -0.642813029202     1.007825032070
           H         -0.184240047806     1.079019687195     1.043320837059     1.007825032070
           C         -0.291482070540     0.704238807898     0.034496038717    12.000000000000
           H         -0.247595902596    -1.348602530629     0.645659153787     1.007825032070
           H          0.195978655542    -1.082848928650    -1.042170327862     1.007825032070
           C          0.298440710786    -0.706206936506    -0.032824507974    12.000000000000
           H          2.189518582708    -1.699023666062     0.307533044477     1.007825032070
           H          1.891026988739    -0.324765299604     1.366205901630     1.007825032070
           H          2.333401839628    -0.059833679160    -0.317522823508     1.007825032070
           C          1.780697823171    -0.698744031992     0.357645510726    12.000000000000

  Nuclear repulsion =  131.247428721833558
  Reference energy  = -157.350119966010965

  ==> Basis Set <==

  Basis Set: AUG-CC-PVTZ
    Blend: AUG-CC-PVTZ
    Number of shells: 146
    Number of basis function: 414
    Number of Cartesian functions: 470
    Spherical Harmonics?: true
    Max angular momentum: 3

  ==> CGRSolver (by Rob Parrish) <==

   Number of roots    =         1
   Preconditioning    =    JACOBI
   Convergence cutoff =     1E-06
   Maximum iterations =       100

  ==> CPHFRHamiltonian (by Rob Parrish) <== 

  ==> DFJK: Density-Fitted J/K Matrices <==

    J tasked:                  Yes
    K tasked:                  Yes
    wK tasked:                  No
    OpenMP threads:              1
    Integrals threads:           1
    Memory (MB):              3576
    Algorithm:                Core
    Integral Cache:           NONE
    Schwarz Cutoff:          1E-12
    Fitting Condition:       1E-12

   => Auxiliary Basis Set <=

  Basis Set: (AUG-CC-PVTZ AUX)
    Blend: AUG-CC-PVTZ-JKFIT
    Number of shells: 260
    Number of basis function: 876
    Number of Cartesian functions: 1074
    Spherical Harmonics?: true
    Max angular momentum: 4

  ==> CPHF Iterations <==

  => Iterations <=

             Iter  Converged  Remaining    Residual
  CGR           1          0          1   8.292E-02
  CGR           2          0          1   1.330E-02
  CGR           3          0          1   3.487E-03
  CGR           4          0          1   8.136E-04
  CGR           5          0          1   1.194E-04
  CGR           6          0          1   2.176E-05
  CGR           7          0          1   3.934E-06
  CGR           8          1          0   9.624E-07

    CGRSolver converged.

  ==> DFCorrGrad: Density-Fitted Correlated Gradients <==

    OpenMP threads:              1
    Integrals threads:           1
    Memory (MB):              3576
    Schwarz Cutoff:          0E+00
    Fitting Condition:       1E-12

   => Auxiliary Basis Set <=

  Basis Set: (AUG-CC-PVTZ AUX)
    Blend: AUG-CC-PVTZ-JKFIT
    Number of shells: 260
    Number of basis function: 876
    Number of Cartesian functions: 1074
    Spherical Harmonics?: true
    Max angular momentum: 4

	-----------------------------------------------------------
	 ==================> DF-MP2 Energies <==================== 
	-----------------------------------------------------------
	 Reference Energy          =    -157.3501199660109648 [Eh]
	 Singles Energy            =      -0.0000000000000001 [Eh]
	 Same-Spin Energy          =      -0.1653375497038122 [Eh]
	 Opposite-Spin Energy      =      -0.6398252330553721 [Eh]
	 Correlation Energy        =      -0.8051627827591844 [Eh]
	 Total Energy              =    -158.1552827487701620 [Eh]
	-----------------------------------------------------------
	 ================> DF-SCS-MP2 Energies <================== 
	-----------------------------------------------------------
	 SCS Same-Spin Scale       =       0.3333333333333333 [-]
	 SCS Opposite-Spin Scale   =       1.2000000000000000 [-]
	 SCS Same-Spin Energy      =      -0.0551125165679374 [Eh]
	 SCS Opposite-Spin Energy  =      -0.7677902796664465 [Eh]
	 SCS Correlation Energy    =      -0.8229027962343840 [Eh]
	 SCS Total Energy          =    -158.1730227622453526 [Eh]
	-----------------------------------------------------------


  -Total Gradient:
     Atom            X                  Y                   Z
    ------   -----------------  -----------------  -----------------
       1        0.003143701536     0.003091828851     0.001290471950
       2        0.004296887494    -0.000563440212    -0.001085013400
       3        0.003329071624    -0.001450508439     0.003125887094
       4       -0.012673839139    -0.003506324993    -0.004279034829
       5       -0.004167598196    -0.003815756946    -0.000167613067
       6       -0.003355518919    -0.003429312908    -0.003087724681
       7        0.012268406265     0.016086146784     0.005980444798
       8        0.003777023943     0.004101605177    -0.000607848065
       9        0.002731983686     0.003437338908     0.003509186343
      10       -0.014009234485    -0.016373744546    -0.006260476860
      11       -0.003553427739     0.002701324596    -0.000520087688
      12       -0.002227390381    -0.001526309506    -0.003690380766
      13       -0.003532713893    -0.002308496273     0.001491560513
      14        0.013972648209     0.003555649502     0.004300628657


*** tstop() called on cpu-6-1.local at Wed Jun 14 14:31:52 2017
Module time:
	user time   =     363.21 seconds =       6.05 minutes
	system time =       5.00 seconds =       0.08 minutes
	total time  =        368 seconds =       6.13 minutes
Total time:
	user time   =     739.32 seconds =      12.32 minutes
	system time =      10.30 seconds =       0.17 minutes
	total time  =        751 seconds =      12.52 minutes

			-----------------------------------------
			 OPTKING 2.0: for geometry optimizations 
			  - R.A. King,  Bethel University        
			-----------------------------------------

	Previous internal coordinate definitions found.
	---Fragment 1 Geometry and Gradient---
	 H          -3.9720095422       -0.5760734998       -1.1349940585
	 H          -4.5222084882        2.0170548764        0.8642537134
	 H          -3.6887674691        2.5166626970       -2.3057839706
	 C          -3.3764065075        1.3237312219       -0.6784989353
	 H           0.4869569639        2.5405926688       -1.2147405798
	 H          -0.3481632331        2.0390517008        1.9715906508
	 C          -0.5508212860        1.3308184791        0.0651880658
	 H          -0.4678884475       -2.5484894450        1.2201189758
	 H           0.3703459869       -2.0462879184       -1.9694165035
	 C           0.5639712103       -1.3345377031       -0.0620293305
	 H           4.1375904842       -3.2106894221        0.5811532309
	 H           3.5735231186       -0.6137174737        2.5817549952
	 H           4.4094904349       -0.1130692671       -0.6000311774
	 C           3.3650312112       -1.3204348575        0.6758520679
	             0.0031437015        0.0030918289        0.0012904720
	             0.0042968875       -0.0005634402       -0.0010850134
	             0.0033290716       -0.0014505084        0.0031258871
	            -0.0126738391       -0.0035063250       -0.0042790348
	            -0.0041675982       -0.0038157569       -0.0001676131
	            -0.0033555189       -0.0034293129       -0.0030877247
	             0.0122684063        0.0160861468        0.0059804448
	             0.0037770239        0.0041016052       -0.0006078481
	             0.0027319837        0.0034373389        0.0035091863
	            -0.0140092345       -0.0163737445       -0.0062604769
	            -0.0035534277        0.0027013246       -0.0005200877
	            -0.0022273904       -0.0015263095       -0.0036903808
	            -0.0035327139       -0.0023084963        0.0014915605
	             0.0139726482        0.0035556495        0.0043006287

	---Fragment 1 Intrafragment Coordinates---
	 - Coordinate -           - BOHR/RAD -       - ANG/DEG -
	 R(1,4)           =         2.042643	       1.080920
	 R(2,4)           =         2.042950	       1.081083
	 R(3,4)           =         2.041742	       1.080443
	 R(4,7)           =         2.921823	       1.546162
	 R(5,7)           =         2.044200	       1.081744
	 R(6,7)           =         2.043780	       1.081522
	 R(7,10)          =         2.891897	       1.530326
	 R(8,10)          =         2.045072	       1.082205
	 R(9,10)          =         2.045044	       1.082191
	 R(10,14)         =         2.896654	       1.532843
	 R(11,14)         =         2.044230	       1.081760
	 R(12,14)         =         2.043376	       1.081308
	 R(13,14)         =         2.043650	       1.081453
	 B(1,4,2)         =         1.897444	     108.715539
	 B(1,4,3)         =         1.897252	     108.704549
	 B(1,4,7)         =         1.918903	     109.945070
	 B(2,4,3)         =         1.894181	     108.528577
	 B(2,4,7)         =         1.927674	     110.447597
	 B(3,4,7)         =         1.927719	     110.450153
	 B(4,7,5)         =         1.910297	     109.451969
	 B(4,7,6)         =         1.911502	     109.521020
	 B(4,7,10)        =         1.938377	     111.060810
	 B(5,7,6)         =         1.905639	     109.185081
	 B(5,7,10)        =         1.898852	     108.796223
	 B(6,7,10)        =         1.898843	     108.795701
	 B(7,10,8)        =         1.901826	     108.966582
	 B(7,10,9)        =         1.902130	     108.984017
	 B(7,10,14)       =         1.935929	     110.920560
	 B(8,10,9)        =         1.907501	     109.291744
	 B(8,10,14)       =         1.908258	     109.335103
	 B(9,10,14)       =         1.907989	     109.319707
	 B(10,14,11)      =         1.927457	     110.435165
	 B(10,14,12)      =         1.915532	     109.751875
	 B(10,14,13)      =         1.915640	     109.758107
	 B(11,14,12)      =         1.901232	     108.932548
	 B(11,14,13)      =         1.900985	     108.918412
	 B(12,14,13)      =         1.902694	     109.016362
	 D(1,4,7,5)       =         2.096668	     120.130232
	 D(1,4,7,6)       =        -2.097909	    -120.201335
	 D(1,4,7,10)      =        -0.000234	      -0.013398
	 D(2,4,7,5)       =        -2.092588	    -119.896481
	 D(2,4,7,6)       =        -0.003980	      -0.228048
	 D(2,4,7,10)      =         2.093695	     119.959889
	 D(3,4,7,5)       =         0.002949	       0.168967
	 D(3,4,7,6)       =         2.091557	     119.837400
	 D(3,4,7,10)      =        -2.093953	    -119.974663
	 D(4,7,10,8)      =        -1.040203	     -59.599260
	 D(4,7,10,9)      =         1.040010	      59.588203
	 D(4,7,10,14)     =         3.141428	     179.990559
	 D(5,7,10,8)      =         3.139299	     179.868581
	 D(5,7,10,9)      =        -1.063673	     -60.943957
	 D(5,7,10,14)     =         1.037745	      59.458399
	 D(6,7,10,8)      =         1.064968	      61.018145
	 D(6,7,10,9)      =        -3.138004	    -179.794392
	 D(6,7,10,14)     =        -1.036587	     -59.392036
	 D(7,10,14,11)    =         3.141462	     179.992501
	 D(7,10,14,12)    =         1.045127	      59.881375
	 D(7,10,14,13)    =        -1.045625	     -59.909918
	 D(8,10,14,11)    =         1.043730	      59.801323
	 D(8,10,14,12)    =        -1.052605	     -60.309804
	 D(8,10,14,13)    =         3.139828	     179.898904
	 D(9,10,14,11)    =        -1.043788	     -59.804631
	 D(9,10,14,12)    =        -3.140122	    -179.915758
	 D(9,10,14,13)    =         1.052310	      60.292950

	Current energy   :      -158.1552827488

	Energy change for the previous step:
		Projected    :        -0.0047195011
		Actual       :        -0.0031218160

	Performing BFGS update.
	Previous computed or guess Hessian on step 1.
	Steps to be used in Hessian update: 1
	Adding user-defined constraint: Fragment 1; Coordinate 46:
		Value =    -2.093953; Fixed value    =    -2.094400
		Force =    -0.000235; Force constant =     0.525000
	Removing off-diagonal coupling between coordinate 46 and others.
	Taking RFO optimization step.
	Going to follow RFO solution 1.
	Using RFO vector 1.

	Determining step-restricting scale parameter for RS-RFO.
	Maximum step size allowed    0.10000

	 Iter      |step|        alpha        rfo_root  
	------------------------------------------------
	    0     0.15223       1.00000           1
	    1     0.11977      11.07730           1
	    2     0.10453      20.58568           1
	    3     0.10033      24.21101           1
	    4     0.10000      24.52266           1
	------------------------------------------------
	Norm of target step-size    0.10000
	Projected energy change by RFO approximation:        -0.0017274470

	Back-transformation to cartesian coordinates...
	Successfully converged to displaced geometry.

	--- Internal Coordinate Step in ANG or DEG, aJ/ANG or AJ/DEG ---
	 ---------------------------------------------------------------------------
	   Coordinate                Previous        Force       Change         New 
	   ----------                --------       ------       ------       ------
	    1 R(1,4)          =      1.080920     0.033620     0.006281     1.087201
	    2 R(2,4)          =      1.081083     0.028181     0.005033     1.086116
	    3 R(3,4)          =      1.080443     0.031704     0.005625     1.086069
	    4 R(4,7)          =      1.546162    -0.017207    -0.006707     1.539455
	    5 R(5,7)          =      1.081744     0.035171     0.006458     1.088202
	    6 R(6,7)          =      1.081522     0.036261     0.006649     1.088171
	    7 R(7,10)         =      1.530326    -0.040314    -0.009830     1.520496
	    8 R(8,10)         =      1.082205     0.038899     0.007139     1.089345
	    9 R(9,10)         =      1.082191     0.038952     0.007149     1.089340
	   10 R(10,14)        =      1.532843    -0.040535    -0.010822     1.522021
	   11 R(11,14)        =      1.081760     0.031445     0.005433     1.087193
	   12 R(12,14)        =      1.081308     0.034580     0.006296     1.087604
	   13 R(13,14)        =      1.081453     0.033783     0.006164     1.087617
	   14 B(1,4,2)        =    108.715539    -0.000197    -0.845601   107.869939
	   15 B(1,4,3)        =    108.704549    -0.000190    -0.808929   107.895620
	   16 B(1,4,7)        =    109.945070     0.000128     0.494284   110.439354
	   17 B(2,4,3)        =    108.528577    -0.000220    -0.822379   107.706198
	   18 B(2,4,7)        =    110.447597     0.000231     0.935184   111.382781
	   19 B(3,4,7)        =    110.450153     0.000231     0.943512   111.393664
	   20 B(4,7,5)        =    109.451969     0.000005     0.316186   109.768156
	   21 B(4,7,6)        =    109.521020    -0.000002     0.255165   109.776185
	   22 B(4,7,10)       =    111.060810     0.000305     1.145121   112.205931
	   23 B(5,7,6)        =    109.185081    -0.000096    -1.239549   107.945532
	   24 B(5,7,10)       =    108.796223    -0.000106    -0.255564   108.540659
	   25 B(6,7,10)       =    108.795701    -0.000113    -0.298343   108.497359
	   26 B(7,10,8)       =    108.966582    -0.000085    -0.184631   108.781951
	   27 B(7,10,9)       =    108.984017    -0.000087    -0.196612   108.787404
	   28 B(7,10,14)      =    110.920560     0.000285     1.083144   112.003704
	   29 B(8,10,9)       =    109.291744    -0.000077    -1.121643   108.170102
	   30 B(8,10,14)      =    109.335103    -0.000022     0.174536   109.509639
	   31 B(9,10,14)      =    109.319707    -0.000019     0.186065   109.505772
	   32 B(10,14,11)     =    110.435165     0.000210     0.846429   111.281595
	   33 B(10,14,12)     =    109.751875     0.000122     0.589201   110.341076
	   34 B(10,14,13)     =    109.758107     0.000120     0.581365   110.339472
	   35 B(11,14,12)     =    108.932548    -0.000157    -0.657891   108.274657
	   36 B(11,14,13)     =    108.918412    -0.000155    -0.649047   108.269365
	   37 B(12,14,13)     =    109.016362    -0.000149    -0.773840   108.242523
	   38 D(1,4,7,5)      =    120.130232     0.000014     0.562947   120.693180
	   39 D(1,4,7,6)      =   -120.201335    -0.000013    -0.606141  -120.807476
	   40 D(1,4,7,10)     =     -0.013398    -0.000001    -0.068403    -0.081800
	   41 D(2,4,7,5)      =   -119.896481     0.000010     0.431283  -119.465198
	   42 D(2,4,7,6)      =     -0.228048    -0.000017    -0.737806    -0.965854
	   43 D(2,4,7,10)     =    119.959889    -0.000005    -0.200067   119.759822
	   44 D(3,4,7,5)      =      0.168967     0.000015     0.643165     0.812133
	   45 D(3,4,7,6)      =    119.837400    -0.000011    -0.525923   119.311477
	   46 D(3,4,7,10)     =   -119.974663     0.000001     0.011815  -119.962847
[...]

             Iter  Converged  Remaining    Residual
  CGR           1          0          1   8.459E-02
  CGR           2          0          1   1.349E-02
  CGR           3          0          1   3.543E-03
  CGR           4          0          1   8.132E-04
  CGR           5          0          1   1.185E-04
  CGR           6          0          1   2.211E-05
  CGR           7          0          1   4.040E-06
  CGR           8          0          1   1.031E-06
  CGR           9          1          0   2.708E-07

    CGRSolver converged.

  ==> DFCorrGrad: Density-Fitted Correlated Gradients <==

    OpenMP threads:              1
    Integrals threads:           1
    Memory (MB):              3576
    Schwarz Cutoff:          0E+00
    Fitting Condition:       1E-12

   => Auxiliary Basis Set <=

  Basis Set: (AUG-CC-PVTZ AUX)
    Blend: AUG-CC-PVTZ-JKFIT
    Number of shells: 260
    Number of basis function: 876
    Number of Cartesian functions: 1074
    Spherical Harmonics?: true
    Max angular momentum: 4

	-----------------------------------------------------------
	 ==================> DF-MP2 Energies <==================== 
	-----------------------------------------------------------
	 Reference Energy          =    -157.3512746545634684 [Eh]
	 Singles Energy            =      -0.0000000000000000 [Eh]
	 Same-Spin Energy          =      -0.1654446482964536 [Eh]
	 Opposite-Spin Energy      =      -0.6398946405980563 [Eh]
	 Correlation Energy        =      -0.8053392888945100 [Eh]
	 Total Energy              =    -158.1566139434579839 [Eh]
	-----------------------------------------------------------
	 ================> DF-SCS-MP2 Energies <================== 
	-----------------------------------------------------------
	 SCS Same-Spin Scale       =       0.3333333333333333 [-]
	 SCS Opposite-Spin Scale   =       1.2000000000000000 [-]
	 SCS Same-Spin Energy      =      -0.0551482160988179 [Eh]
	 SCS Opposite-Spin Energy  =      -0.7678735687176675 [Eh]
	 SCS Correlation Energy    =      -0.8230217848164855 [Eh]
	 SCS Total Energy          =    -158.1742964393799582 [Eh]
	-----------------------------------------------------------


  -Total Gradient:
     Atom            X                  Y                   Z
    ------   -----------------  -----------------  -----------------
       1       -0.000006989098    -0.000035145429     0.000009841336
       2       -0.000027608277     0.000055046350     0.000042361617
       3        0.000001300414     0.000032049566    -0.000062768193
       4        0.000052078560    -0.000074594493     0.000006339974
       5       -0.000012449052     0.000009603926    -0.000022080648
       6       -0.000018587891    -0.000020059548     0.000037164885
       7        0.000064249242    -0.000008838945     0.000027047602
       8       -0.000018780332    -0.000008089192     0.000032143578
       9        0.000000969144    -0.000004357791    -0.000040580197
      10        0.000041130921     0.000025803319    -0.000015386263
      11        0.000027798737    -0.000061861294    -0.000001461948
      12        0.000022646748     0.000021964952     0.000064799870
      13        0.000046492342     0.000035321793    -0.000034357142
      14       -0.000172251460     0.000033156787    -0.000043064468


*** tstop() called on cpu-6-1.local at Wed Jun 14 14:53:30 2017
Module time:
	user time   =     453.63 seconds =       7.56 minutes
	system time =       4.86 seconds =       0.08 minutes
	total time  =        459 seconds =       7.65 minutes
Total time:
	user time   =    2021.87 seconds =      33.70 minutes
	system time =      25.73 seconds =       0.43 minutes
	total time  =       2049 seconds =      34.15 minutes

			-----------------------------------------
			 OPTKING 2.0: for geometry optimizations 
			  - R.A. King,  Bethel University        
			-----------------------------------------

	Previous internal coordinate definitions found.
	---Fragment 1 Geometry and Gradient---
	 H          -4.0120562346       -0.5849613703       -1.1555972996
	 H          -4.5694107506        1.9890052947        0.8511981847
	 H          -3.7399753177        2.5049912746       -2.3136800206
	 C          -3.3794072052        1.3135880111       -0.6802300453
	 H           0.4882751499        2.5511040706       -1.1935413194
	 H          -0.3368180591        2.0576823641        1.9548419806
	 C          -0.5780022043        1.3048068051        0.0526483831
	 H          -0.4583974105       -2.5642159655        1.2040962842
	 H           0.3713122337       -2.0681729329       -1.9550302069
	 C           0.5941379340       -1.3108048680       -0.0501308562
	 H           4.1744845698       -3.1948977159        0.5942406301
	 H           3.6128336221       -0.5951270510        2.5923309751
	 H           4.4471573533       -0.0960501511       -0.5845033087
	 C           3.3651691128       -1.3075360142        0.6781865406
	            -0.0000069891       -0.0000351454        0.0000098413
	            -0.0000276083        0.0000550463        0.0000423616
	             0.0000013004        0.0000320496       -0.0000627682
	             0.0000520786       -0.0000745945        0.0000063400
	            -0.0000124491        0.0000096039       -0.0000220806
	            -0.0000185879       -0.0000200595        0.0000371649
	             0.0000642492       -0.0000088389        0.0000270476
	            -0.0000187803       -0.0000080892        0.0000321436
	             0.0000009691       -0.0000043578       -0.0000405802
	             0.0000411309        0.0000258033       -0.0000153863
	             0.0000277987       -0.0000618613       -0.0000014619
	             0.0000226467        0.0000219650        0.0000647999
	             0.0000464923        0.0000353218       -0.0000343571
	            -0.0001722515        0.0000331568       -0.0000430645

	---Fragment 1 Intrafragment Coordinates---
	 - Coordinate -           - BOHR/RAD -       - ANG/DEG -
	 R(1,4)           =         2.056869	       1.088448
	 R(2,4)           =         2.053672	       1.086757
	 R(3,4)           =         2.053682	       1.086762
	 R(4,7)           =         2.895696	       1.532337
	 R(5,7)           =         2.059901	       1.090053
	 R(6,7)           =         2.059935	       1.090071
	 R(7,10)          =         2.868083	       1.517724
	 R(8,10)          =         2.062027	       1.091178
	 R(9,10)          =         2.062013	       1.091170
	 R(10,14)         =         2.865148	       1.516171
	 R(11,14)         =         2.055279	       1.087607
	 R(12,14)         =         2.057380	       1.088719
	 R(13,14)         =         2.057373	       1.088715
	 B(1,4,2)         =         1.873060	     107.318442
	 B(1,4,3)         =         1.873031	     107.316749
	 B(1,4,7)         =         1.931846	     110.686643
	 B(2,4,3)         =         1.876101	     107.492679
	 B(2,4,7)         =         1.952874	     111.891425
	 B(3,4,7)         =         1.952947	     111.895649
	 B(4,7,5)         =         1.923920	     110.232486
	 B(4,7,6)         =         1.923966	     110.235159
	 B(4,7,10)        =         1.970421	     112.896782
	 B(5,7,6)         =         1.851377	     106.076099
	 B(5,7,10)        =         1.894985	     108.574619
	 B(6,7,10)        =         1.894999	     108.575468
	 B(7,10,8)        =         1.900689	     108.901440
	 B(7,10,9)        =         1.900650	     108.899242
	 B(7,10,14)       =         1.966123	     112.650544
	 B(8,10,9)        =         1.858221	     106.468217
	 B(8,10,14)       =         1.917444	     109.861468
	 B(9,10,14)       =         1.917460	     109.862368
	 B(10,14,11)      =         1.949169	     111.679161
	 B(10,14,12)      =         1.931915	     110.690567
	 B(10,14,13)      =         1.931884	     110.688826
	 B(11,14,12)      =         1.884494	     107.973556
	 B(11,14,13)      =         1.884502	     107.973984
	 B(12,14,13)      =         1.879476	     107.686031
	 D(1,4,7,5)       =         2.116622	     121.273486
	 D(1,4,7,6)       =        -2.128552	    -121.957049
	 D(1,4,7,10)      =        -0.005939	      -0.340269
	 D(2,4,7,5)       =        -2.078330	    -119.079539
	 D(2,4,7,6)       =        -0.040318	      -2.310075
	 D(2,4,7,10)      =         2.082295	     119.306705
	 D(3,4,7,5)       =         0.028376	       1.625852
	 D(3,4,7,6)       =         2.066388	     118.395317
	 D(3,4,7,10)      =        -2.094184	    -119.987903
	 D(4,7,10,8)      =        -1.009279	     -57.827453
	 D(4,7,10,9)      =         1.010380	      57.890497
	 D(4,7,10,14)     =        -3.141046	    -179.968683
	 D(5,7,10,8)      =         3.135085	     179.627126
	 D(5,7,10,9)      =        -1.128441	     -64.654924
	 D(5,7,10,14)     =         1.003318	      57.485896
	 D(6,7,10,8)      =         1.129612	      64.721982
	 D(6,7,10,9)      =        -3.133914	    -179.560067
	 D(6,7,10,14)     =        -1.002155	     -57.419248
	 D(7,10,14,11)    =        -3.141491	    -179.994161
	 D(7,10,14,12)    =         1.041402	      59.667956
	 D(7,10,14,13)    =        -1.041210	     -59.656922
	 D(8,10,14,11)    =         1.019409	      58.407846
	 D(8,10,14,12)    =        -1.080883	     -61.930037
	 D(8,10,14,13)    =         3.119690	     178.745085
	 D(9,10,14,11)    =        -1.019243	     -58.398339
	 D(9,10,14,12)    =        -3.119536	    -178.736222
	 D(9,10,14,13)    =         1.081038	      61.938901

	Current energy   :      -158.1566139435

	Energy change for the previous step:
		Projected    :        -0.0000002232
		Actual       :        -0.0000062083

	Performing BFGS update.
	Previous computed or guess Hessian on step 1.
	Steps to be used in Hessian update: 4 3
	Adding user-defined constraint: Fragment 1; Coordinate 46:
		Value =    -2.094184; Fixed value    =    -2.094400
		Force =    -0.000130; Force constant =     0.600000
	Removing off-diagonal coupling between coordinate 46 and others.
	Taking RFO optimization step.
	Going to follow RFO solution 1.
	Using RFO vector 1.
	Norm of target step-size    0.00248
	Projected energy change by RFO approximation:        -0.0000004754

	Back-transformation to cartesian coordinates...
	Successfully converged to displaced geometry.

	--- Internal Coordinate Step in ANG or DEG, aJ/ANG or AJ/DEG ---
	 ---------------------------------------------------------------------------
	   Coordinate                Previous        Force       Change         New 
	   ----------                --------       ------       ------       ------
	    1 R(1,4)          =      1.088448    -0.000266    -0.000060     1.088388
	    2 R(2,4)          =      1.086757    -0.000541    -0.000109     1.086648
	    3 R(3,4)          =      1.086762    -0.000563    -0.000114     1.086648
	    4 R(4,7)          =      1.532337     0.000141     0.000008     1.532344
	    5 R(5,7)          =      1.090053    -0.000105    -0.000025     1.090028
	    6 R(6,7)          =      1.090071    -0.000204    -0.000044     1.090027
	    7 R(7,10)         =      1.517724     0.000479     0.000099     1.517823
	    8 R(8,10)         =      1.091178    -0.000281    -0.000060     1.091118
	    9 R(9,10)         =      1.091170    -0.000321    -0.000067     1.091103
	   10 R(10,14)        =      1.516171     0.000629     0.000142     1.516313
	   11 R(11,14)        =      1.087607    -0.000559    -0.000115     1.087492
	   12 R(12,14)        =      1.088719    -0.000582    -0.000117     1.088602
	   13 R(13,14)        =      1.088715    -0.000547    -0.000110     1.088604
	   14 B(1,4,2)        =    107.318442    -0.000001    -0.007927   107.310514
	   15 B(1,4,3)        =    107.316749     0.000000    -0.017197   107.299552
	   16 B(1,4,7)        =    110.686643     0.000001    -0.008129   110.678514
	   17 B(2,4,3)        =    107.492679    -0.000002     0.017031   107.509711
	   18 B(2,4,7)        =    111.891425     0.000000     0.008913   111.900339
	   19 B(3,4,7)        =    111.895649     0.000001     0.006316   111.901965
	   20 B(4,7,5)        =    110.232486     0.000000     0.003408   110.235894
	   21 B(4,7,6)        =    110.235159    -0.000000     0.009617   110.244776
	   22 B(4,7,10)       =    112.896782     0.000003     0.012814   112.909595
	   23 B(5,7,6)        =    106.076099    -0.000001    -0.020367   106.055733
	   24 B(5,7,10)       =    108.574619     0.000000    -0.011481   108.563138
	   25 B(6,7,10)       =    108.575468    -0.000002     0.003653   108.579121
	   26 B(7,10,8)       =    108.901440    -0.000000     0.004144   108.905583
	   27 B(7,10,9)       =    108.899242    -0.000001    -0.001343   108.897899
	   28 B(7,10,14)      =    112.650544     0.000002     0.009650   112.660195
	   29 B(8,10,9)       =    106.468217    -0.000000    -0.011246   106.456971
	   30 B(8,10,14)      =    109.861468    -0.000001    -0.000903   109.860565
	   31 B(9,10,14)      =    109.862368    -0.000001    -0.001457   109.860911
	   32 B(10,14,11)     =    111.679161     0.000000     0.001317   111.680478
	   33 B(10,14,12)     =    110.690567    -0.000001    -0.007774   110.682793
	   34 B(10,14,13)     =    110.688826    -0.000001    -0.007572   110.681253
	   35 B(11,14,12)     =    107.973556     0.000001     0.005517   107.979073
	   36 B(11,14,13)     =    107.973984     0.000001     0.005051   107.979035
	   37 B(12,14,13)     =    107.686031     0.000001     0.004164   107.690195
	   38 D(1,4,7,5)      =    121.273486    -0.000000    -0.036586   121.236900
	   39 D(1,4,7,6)      =   -121.957049    -0.000000    -0.053685  -122.010734
	   40 D(1,4,7,10)     =     -0.340269    -0.000001    -0.033142    -0.373411
	   41 D(2,4,7,5)      =   -119.079539    -0.000000    -0.046213  -119.125752
	   42 D(2,4,7,6)      =     -2.310075    -0.000000    -0.063312    -2.373386
	   43 D(2,4,7,10)     =    119.306705    -0.000001    -0.042769   119.263937
	   44 D(3,4,7,5)      =      1.625852    -0.000000    -0.013507     1.612345
	   45 D(3,4,7,6)      =    118.395317    -0.000001    -0.030606   118.364711
	   46 D(3,4,7,10)     =   -119.987903    -0.000001    -0.010063  -119.997966
	   47 D(4,7,10,8)     =    -57.827453     0.000000     0.002434   -57.825019
	   48 D(4,7,10,9)     =     57.890497     0.000000    -0.009414    57.881084
	   49 D(4,7,10,14)    =   -179.968683     0.000000    -0.005786  -179.974468
	   50 D(5,7,10,8)     =    179.627126    -0.000000    -0.002256   179.624869
	   51 D(5,7,10,9)     =    -64.654924    -0.000000    -0.014104   -64.669028
	   52 D(5,7,10,14)    =     57.485896    -0.000000    -0.010476    57.475420
	   53 D(6,7,10,8)     =     64.721982     0.000000     0.025876    64.747858
	   54 D(6,7,10,9)     =   -179.560067     0.000000     0.014029  -179.546039
	   55 D(6,7,10,14)    =    -57.419248     0.000000     0.017657   -57.401591
	   56 D(7,10,14,11)   =   -179.994161     0.000000     0.008881  -179.985280
	   57 D(7,10,14,12)   =     59.667956     0.000000     0.006302    59.674258
	   58 D(7,10,14,13)   =    -59.656922     0.000000     0.011005   -59.645917
	   59 D(8,10,14,11)   =     58.407846    -0.000000    -0.002350    58.405495
	   60 D(8,10,14,12)   =    -61.930037    -0.000000    -0.004929   -61.934966
	   61 D(8,10,14,13)   =    178.745085    -0.000000    -0.000226   178.744859
	   62 D(9,10,14,11)   =    -58.398339     0.000000     0.012695   -58.385644
	   63 D(9,10,14,12)   =   -178.736222     0.000000     0.010117  -178.726105
	   64 D(9,10,14,13)   =     61.938901     0.000000     0.014819    61.953720
	 ---------------------------------------------------------------------------
	Successfully symmetrized geometry.
	 Forces used to impose fixed constraints are not included.
	  Forces zeroed: 46 

  ==> Convergence Check <==

  Measures of convergence in internal coordinates in au.
  Criteria marked as inactive (o), active & met (*), and active & unmet ( ).
  ---------------------------------------------------------------------------------------------
   Step     Total Energy     Delta E     MAX Force     RMS Force      MAX Disp      RMS Disp   
  ---------------------------------------------------------------------------------------------
    Convergence Criteria    1.00e-06 *    3.00e-04 *             o    1.20e-03 *             o
  ---------------------------------------------------------------------------------------------
      5    -158.15661394   -6.21e-06      7.64e-05 *    2.80e-05 o    1.10e-03 *    3.10e-04 o  ~
  ---------------------------------------------------------------------------------------------


  **** Optimization is complete! (in 5 steps) ****

  ==> Optimization Summary <==

  Measures of convergence in internal coordinates in au.
  --------------------------------------------------------------------------------------------------------------- ~
   Step         Total Energy             Delta E       MAX Force       RMS Force        MAX Disp        RMS Disp  ~
  --------------------------------------------------------------------------------------------------------------- ~
      1    -158.152160932796   -158.152160932796      0.01303282      0.00572212      0.02722274      0.01251037  ~
      2    -158.155282748770     -0.003121815975      0.00492006      0.00239255      0.02966603      0.01253074  ~
      3    -158.156374586827     -0.001091838057      0.00175658      0.00068747      0.03133557      0.01101119  ~
      4    -158.156607735126     -0.000233148299      0.00095513      0.00017382      0.00492340      0.00174757  ~
      5    -158.156613943458     -0.000006208332      0.00007639      0.00002894      0.00110499      0.00031043  ~
  --------------------------------------------------------------------------------------------------------------- ~

	Writing optimization data to binary file.
	Final energy is   -158.1566139434580
	Final (previous) structure:
	Cartesian Geometry (in Angstrom)
	    H    -2.1230887189  -0.3095482251  -0.6115157533
	    H    -2.4180280259   1.0525362697   0.4504346793
	    H    -1.9791096988   1.3255842902  -1.2243467349
	    C    -1.7883052715   0.6951208369  -0.3599622366
	    H     0.2583840808   1.3499861309  -0.6315948637
	    H    -0.1782364403   1.0888786096   1.0344578225
	    C    -0.3058655930   0.6904740229   0.0278603244
	    H    -0.2425734621  -1.3569246469   0.6371803105
	    H     0.1964899714  -1.0944299795  -1.0345574276
	    C     0.3144042534  -0.6936480611  -0.0265281066
	    H     2.2090420920  -1.6906670550   0.3144585979
	    H     1.9118292113  -0.3149276716   1.3718024691
	    H     2.3533343144  -0.0508275508  -0.3093058293
	    C     1.7807707976  -0.6919182581   0.3588808605
	Saving final (previous) structure.
			--------------------------
			 OPTKING Finished Execution 
			--------------------------

    Final optimized geometry and variables:
    Molecular point group: c1
    Full point group: C1

    Geometry (in Angstrom), charge = 0, multiplicity = 1:

    H           -2.123088718942    -0.309548225094    -0.611515753276
    H           -2.418028025923     1.052536269722     0.450434679347
    H           -1.979109698790     1.325584290249    -1.224346734870
    C           -1.788305271532     0.695120836939    -0.359962236587
    H            0.258384080849     1.349986130878    -0.631594863734
    H           -0.178236440305     1.088878609604     1.034457822511
    C           -0.305865593005     0.690474022871     0.027860324412
    H           -0.242573462093    -1.356924646868     0.637180310533
    H            0.196489971363    -1.094429979519    -1.034557427584
    C            0.314404253441    -0.693648061054    -0.026528106572
    H            2.209042091956    -1.690667055032     0.314458597863
    H            1.911829211263    -0.314927671596     1.371802469139
    H            2.353334314378    -0.050827550819    -0.309305829295
    C            1.780770797565    -0.691918258119     0.358880860466

	Cleaning optimization helper files.

*** Psi4 exiting successfully. Buy a developer a beer!
