
    -----------------------------------------------------------------------
          Psi4: An Open-Source Ab Initio Electronic Structure Package
                               Psi4 1.1 release

                         Git: Rev {HEAD} add49b9 


    R. M. Parrish, L. A. Burns, D. G. A. Smith, A. C. Simmonett,
    A. E. DePrince III, E. G. Hohenstein, U. Bozkaya, A. Yu. Sokolov,
    R. Di Remigio, R. M. Richard, J. F. Gonthier, A. M. James,
    H. R. McAlexander, A. Kumar, M. Saitow, X. Wang, B. P. Pritchard,
    P. Verma, H. F. Schaefer III, K. Patkowski, R. A. King, E. F. Valeev,
    F. A. Evangelista, J. M. Turney, T. D. Crawford, and C. D. Sherrill,
    J. Chem. Theory Comput. in press (2017).
    (doi: 10.1021/acs.jctc.7b00174)

    -----------------------------------------------------------------------


    Psi4 started on: Wednesday, 14 June 2017 02:25PM

    Process ID:  16783
    PSIDATADIR: /cbio/jclab/home/chayas/anaconda/envs/py35/share/psi4
    Memory:     500.0 MiB
    Threads:    1
    
  ==> Input File <==

--------------------------------------------------------------------------

memory 1000 mb

molecule butane {
  symmetry C1
  0 1 
  H      4.894   2.174   -10.101
  H      4.271   3.408   -9.031
  H      5.561   2.358   -8.497
  C      4.669   2.415   -9.083
  H      3.407   1.657   -7.519
  H      2.737   1.473   -9.122
  C      3.631   1.416   -8.537
  H      3.665   -0.647   -7.940
  H      4.104   -0.384   -9.610
  C      4.203   -0.012   -8.612
  H      6.088   -0.983   -8.270
  H      5.791   0.381   -7.220
  H      6.230   0.644   -8.890
  C      5.691   0.009   -8.218
  units Angstrom
}

dih_string = "14 10 7 4 40"
set optking fixed_dihedral = $dih_string

optimize('MP2/aug-cc-pvtz')
--------------------------------------------------------------------------

  Memory set to 953.674 MiB by Python driver.
gradient() will perform analytic gradient computation.

*** tstart() called on gpu-1-10.local
*** at Wed Jun 14 14:25:45 2017

    SCF Algorithm Type (re)set to DF.

*** tstart() called on gpu-1-10.local
*** at Wed Jun 14 14:25:45 2017

   => Loading Basis Set <=

    Name: AUG-CC-PVTZ
    Role: ORBITAL
    Keyword: BASIS
    atoms 1-3, 5-6, 8-9, 11-13 entry H          line    34 file /cbio/jclab/home/chayas/anaconda/envs/py35/share/psi4/basis/aug-cc-pvtz.gbs 
    atoms 4, 7, 10, 14         entry C          line   221 file /cbio/jclab/home/chayas/anaconda/envs/py35/share/psi4/basis/aug-cc-pvtz.gbs 


         ---------------------------------------------------------
                                   SCF
            by Justin Turney, Rob Parrish, and Andy Simmonett
                              RHF Reference
                        1 Threads,    953 MiB Core
         ---------------------------------------------------------

  ==> Geometry <==

    Molecular point group: c1
    Full point group: C1

    Geometry (in Angstrom), charge = 0, multiplicity = 1:

       Center              X                  Y                   Z               Mass       
    ------------   -----------------  -----------------  -----------------  -----------------
           H          0.323583309871     1.208132677232    -1.487198533840     1.007825032070
           H         -0.299416690129     2.442132677232    -0.417198533840     1.007825032070
           H          0.990583309871     1.392132677232     0.116801466160     1.007825032070
           C          0.098583309871     1.449132677232    -0.469198533840    12.000000000000
           H         -1.163416690129     0.691132677232     1.094801466160     1.007825032070
           H         -1.833416690129     0.507132677232    -0.508198533840     1.007825032070
           C         -0.939416690129     0.450132677232     0.076801466160    12.000000000000
           H         -0.905416690129    -1.612867322768     0.673801466160     1.007825032070
           H         -0.466416690129    -1.349867322768    -0.996198533840     1.007825032070
           C         -0.367416690129    -0.977867322768     0.001801466160    12.000000000000
           H          1.517583309871    -1.948867322768     0.343801466160     1.007825032070
           H          1.220583309871    -0.584867322768     1.393801466160     1.007825032070
           H          1.659583309871    -0.321867322768    -0.276198533840     1.007825032070
           C          1.120583309871    -0.956867322768     0.395801466160    12.000000000000

  Running in c1 symmetry.

  Rotational constants: A =      0.39411  B =      0.19302  C =      0.14783 [cm^-1]
  Rotational constants: A =  11815.06978  B =   5786.71657  C =   4431.93977 [MHz]
  Nuclear repulsion =  135.629412006953885

  Charge       = 0
  Multiplicity = 1
  Electrons    = 34
  Nalpha       = 17
  Nbeta        = 17

  ==> Algorithm <==

  SCF Algorithm Type is DF.
  DIIS enabled.
  MOM disabled.
  Fractional occupation disabled.
  Guess Type is SAD.
  Energy threshold   = 1.00e-10
  Density threshold  = 1.00e-10
  Integral threshold = 0.00e+00

  ==> Primary Basis <==

  Basis Set: AUG-CC-PVTZ
    Blend: AUG-CC-PVTZ
    Number of shells: 146
    Number of basis function: 414
    Number of Cartesian functions: 470
    Spherical Harmonics?: true
    Max angular momentum: 3

   => Loading Basis Set <=

    Name: (AUG-CC-PVTZ AUX)
    Role: JKFIT
    Keyword: DF_BASIS_SCF
    atoms 1-3, 5-6, 8-9, 11-13 entry H          line    69 file /cbio/jclab/home/chayas/anaconda/envs/py35/share/psi4/basis/aug-cc-pvtz-jkfit.gbs 
    atoms 4, 7, 10, 14         entry C          line   161 file /cbio/jclab/home/chayas/anaconda/envs/py35/share/psi4/basis/aug-cc-pvtz-jkfit.gbs 

  ==> Pre-Iterations <==

   -------------------------------------------------------
    Irrep   Nso     Nmo     Nalpha   Nbeta   Ndocc  Nsocc
   -------------------------------------------------------
     A        414     414       0       0       0       0
   -------------------------------------------------------
    Total     414     414      17      17      17       0
   -------------------------------------------------------

  ==> Integral Setup <==

  ==> DFJK: Density-Fitted J/K Matrices <==

    J tasked:                  Yes
    K tasked:                  Yes
    wK tasked:                  No
    OpenMP threads:              1
    Integrals threads:           1
    Memory (MB):               715
    Algorithm:                Core
    Integral Cache:           NONE
    Schwarz Cutoff:          1E-12
    Fitting Condition:       1E-12

   => Auxiliary Basis Set <=

  Basis Set: (AUG-CC-PVTZ AUX)
    Blend: AUG-CC-PVTZ-JKFIT
    Number of shells: 260
    Number of basis function: 876
    Number of Cartesian functions: 1074
    Spherical Harmonics?: true
    Max angular momentum: 4

  Minimum eigenvalue in the overlap matrix is 5.5130671669E-06.
  Using Symmetric Orthogonalization.

  SCF Guess: Superposition of Atomic Densities via on-the-fly atomic UHF.

  ==> Iterations <==

                           Total Energy        Delta E     RMS |[F,P]|

   @DF-RHF iter   0:  -159.28516528434412   -1.59285e+02   9.90037e-03 
   @DF-RHF iter   1:  -157.24894006637624    2.03623e+00   8.10174e-04 
   @DF-RHF iter   2:  -157.33390347491112   -8.49634e-02   2.42680e-04 DIIS
   @DF-RHF iter   3:  -157.34200473153757   -8.10126e-03   9.03294e-05 DIIS
   @DF-RHF iter   4:  -157.34305892247551   -1.05419e-03   1.96402e-05 DIIS
   @DF-RHF iter   5:  -157.34312428550840   -6.53630e-05   4.03235e-06 DIIS
   @DF-RHF iter   6:  -157.34312766549385   -3.37999e-06   9.78778e-07 DIIS
   @DF-RHF iter   7:  -157.34312783410334   -1.68609e-07   2.85223e-07 DIIS
   @DF-RHF iter   8:  -157.34312784579734   -1.16940e-08   5.85868e-08 DIIS
   @DF-RHF iter   9:  -157.34312784646937   -6.72031e-10   1.41454e-08 DIIS
   @DF-RHF iter  10:  -157.34312784651610   -4.67253e-11   3.72801e-09 DIIS
   @DF-RHF iter  11:  -157.34312784651814   -2.04636e-12   1.11379e-09 DIIS
   @DF-RHF iter  12:  -157.34312784651721    9.37916e-13   2.84888e-10 DIIS
   @DF-RHF iter  13:  -157.34312784651843   -1.22213e-12   6.77773e-11 DIIS

  ==> Post-Iterations <==

    Orbital Energies (a.u.)
    -----------------------

    Doubly Occupied:                                                      

       1A    -11.206682     2A    -11.206086     3A    -11.197492  
       4A    -11.197369     5A     -1.075549     6A     -0.969946  
       7A     -0.883888     8A     -0.776290     9A     -0.639416  
      10A     -0.628608    11A     -0.573899    12A     -0.539270  
      13A     -0.527131    14A     -0.506971    15A     -0.466972  
      16A     -0.453936    17A     -0.453485  

    Virtual:                                                              

      18A      0.031745    19A      0.038136    20A      0.039538  
      21A      0.040057    22A      0.057915    23A      0.060066  
      24A      0.061203    25A      0.062562    26A      0.063672  
      27A      0.088332    28A      0.120898    29A      0.122257  
      30A      0.122671    31A      0.126343    32A      0.126739  
      33A      0.131398    34A      0.137631    35A      0.140777  
      36A      0.142229    37A      0.147328    38A      0.162150  
      39A      0.165406    40A      0.170498    41A      0.191610  
      42A      0.197468    43A      0.215096    44A      0.238220  
      45A      0.243500    46A      0.274943    47A      0.278598  
      48A      0.287981    49A      0.289999    50A      0.304096  
      51A      0.306867    52A      0.311806    53A      0.316526  
      54A      0.318771    55A      0.330149    56A      0.331213  
      57A      0.334519    58A      0.347104    59A      0.349741  
      60A      0.356387    61A      0.358465    62A      0.363926  
      63A      0.365406    64A      0.377548    65A      0.385373  
      66A      0.396349    67A      0.411212    68A      0.415781  
      69A      0.423439    70A      0.428171    71A      0.444195  
      72A      0.444592    73A      0.452566    74A      0.453612  
      75A      0.462458    76A      0.463895    77A      0.467039  
      78A      0.475978    79A      0.479045    80A      0.482618  
      81A      0.483246    82A      0.493005    83A      0.497958  
      84A      0.506237    85A      0.520072    86A      0.535269  
      87A      0.542313    88A      0.551340    89A      0.554284  
      90A      0.557762    91A      0.565020    92A      0.572895  
      93A      0.572929    94A      0.581360    95A      0.590125  
      96A      0.604003    97A      0.611910    98A      0.621244  
      99A      0.631464   100A      0.636117   101A      0.649427  
     102A      0.668512   103A      0.671846   104A      0.678721  
     105A      0.687168   106A      0.693728   107A      0.755078  
     108A      0.780896   109A      0.793363   110A      0.804611  
     111A      0.818028   112A      0.827748   113A      0.838382  
     114A      0.840188   115A      0.859133   116A      0.865356  
     117A      0.865520   118A      0.873182   119A      0.881231  
     120A      0.894033   121A      0.902825   122A      0.912025  
     123A      0.919046   124A      0.922230   125A      0.934111  
     126A      0.938873   127A      0.950875   128A      0.967028  
     129A      0.971894   130A      0.980770   131A      0.991572  
     132A      0.994646   133A      1.001668   134A      1.002434  
     135A      1.013245   136A      1.034192   137A      1.045973  
     138A      1.052999   139A      1.065619   140A      1.074587  
     141A      1.087288   142A      1.107561   143A      1.108525  
     144A      1.110318   145A      1.117767   146A      1.127467  
     147A      1.140033   148A      1.143972   149A      1.151357  
     150A      1.161092   151A      1.172529   152A      1.195518  
     153A      1.204766   154A      1.205342   155A      1.218210  
     156A      1.223987   157A      1.237334   158A      1.250035  
     159A      1.256606   160A      1.263793   161A      1.271517  
     162A      1.283657   163A      1.297557   164A      1.300770  
     165A      1.325585   166A      1.329996   167A      1.346212  
     168A      1.363183   169A      1.365256   170A      1.383739  
     171A      1.406173   172A      1.432232   173A      1.441794  
     174A      1.448258   175A      1.458568   176A      1.473275  
     177A      1.489941   178A      1.502900   179A      1.512020  
     180A      1.515605   181A      1.536232   182A      1.548711  
     183A      1.557585   184A      1.585336   185A      1.588199  
     186A      1.603166   187A      1.603416   188A      1.623742  
     189A      1.644315   190A      1.660725   191A      1.679228  
     192A      1.680216   193A      1.682841   194A      1.699059  
     195A      1.704480   196A      1.711186   197A      1.730129  
     198A      1.739828   199A      1.748437   200A      1.763830  
     201A      1.772976   202A      1.789679   203A      1.797749  
     204A      1.800536   205A      1.810088   206A      1.826248  
     207A      1.830677   208A      1.845935   209A      1.860105  
     210A      1.866543   211A      1.887153   212A      1.899984  
     213A      1.924831   214A      1.926198   215A      1.942859  
     216A      1.948943   217A      1.965103   218A      1.986057  
     219A      2.012357   220A      2.021661   221A      2.029193  
     222A      2.046263   223A      2.056947   224A      2.069690  
     225A      2.070102   226A      2.081900   227A      2.087243  
     228A      2.133975   229A      2.136549   230A      2.159763  
     231A      2.169192   232A      2.191285   233A      2.201115  
     234A      2.215410   235A      2.256875   236A      2.262189  
     237A      2.286185   238A      2.301326   239A      2.319100  
     240A      2.336184   241A      2.338073   242A      2.366668  
     243A      2.372918   244A      2.412316   245A      2.429259  
     246A      2.446373   247A      2.455860   248A      2.461879  
     249A      2.511209   250A      2.515229   251A      2.529676  
     252A      2.557496   253A      2.578304   254A      2.592257  
     255A      2.599056   256A      2.667705   257A      2.826146  
     258A      2.840661   259A      2.934197   260A      3.052006  
     261A      3.254747   262A      3.315306   263A      3.323508  
     264A      3.378180   265A      3.389888   266A      3.427843  
     267A      3.449246   268A      3.501653   269A      3.508911  
     270A      3.538306   271A      3.558105   272A      3.568316  
     273A      3.576667   274A      3.583056   275A      3.603379  
     276A      3.656814   277A      3.677903   278A      3.687467  
     279A      3.693625   280A      3.711216   281A      3.712847  
     282A      3.720725   283A      3.732581   284A      3.771427  
     285A      3.786355   286A      3.792794   287A      3.801356  
     288A      3.826547   289A      3.830780   290A      3.851026  
     291A      3.884996   292A      3.891433   293A      3.895524  
     294A      3.901719   295A      3.936731   296A      3.961969  
     297A      3.992855   298A      3.993264   299A      4.003016  
     300A      4.026136   301A      4.031116   302A      4.043814  
     303A      4.057088   304A      4.064131   305A      4.074607  
     306A      4.080263   307A      4.104450   308A      4.112421  
     309A      4.160878   310A      4.170757   311A      4.179752  
     312A      4.190617   313A      4.246418   314A      4.278626  
     315A      4.282045   316A      4.304607   317A      4.314900  
     318A      4.321617   319A      4.330244   320A      4.358986  
     321A      4.365784   322A      4.394242   323A      4.415948  
     324A      4.417379   325A      4.463761   326A      4.473909  
     327A      4.495814   328A      4.572691   329A      4.581726  
     330A      4.613322   331A      4.623381   332A      4.672013  
     333A      4.685548   334A      4.709361   335A      4.721140  
     336A      4.754617   337A      4.787972   338A      4.789801  
     339A      4.800481   340A      4.805280   341A      4.846840  
     342A      4.892066   343A      4.912669   344A      4.913158  
     345A      4.948991   346A      4.959113   347A      4.979938  
     348A      4.984618   349A      5.020300   350A      5.021457  
     351A      5.034665   352A      5.070039   353A      5.078126  
     354A      5.125406   355A      5.152368   356A      5.152797  
     357A      5.189296   358A      5.203559   359A      5.207629  
     360A      5.243632   361A      5.259128   362A      5.300205  
     363A      5.350871   364A      5.371951   365A      5.378357  
     366A      5.397237   367A      5.399887   368A      5.421525  
     369A      5.445681   370A      5.456819   371A      5.494743  
     372A      5.512912   373A      5.536374   374A      5.544143  
     375A      5.577531   376A      5.599158   377A      5.632509  
     378A      5.696724   379A      5.701207   380A      5.715116  
     381A      5.745552   382A      5.777521   383A      5.790502  
     384A      5.840778   385A      5.866929   386A      5.886483  
     387A      5.904380   388A      5.978412   389A      5.986612  
     390A      6.028361   391A      6.122614   392A      6.161059  
     393A      6.168990   394A      6.214634   395A      6.233070  
     396A      6.273047   397A      6.283138   398A      6.362569  
     399A      6.364608   400A      6.397964   401A      6.441863  
     402A      6.458302   403A      6.603999   404A      6.627842  
     405A      6.785024   406A      6.804347   407A      6.905081  
     408A      6.933295   409A      6.944738   410A      6.984773  
     411A     18.199362   412A     18.301598   413A     18.943080  
     414A     19.470680  

    Final Occupation by Irrep:
              A 
    DOCC [    17 ]

  Energy converged.

  @DF-RHF Final Energy:  -157.34312784651843

   => Energetics <=

    Nuclear Repulsion Energy =            135.6294120069538849
    One-Electron Energy =                -479.3390980693418442
    Two-Electron Energy =                 186.3665582158695315
    DFT Exchange-Correlation Energy =       0.0000000000000000
    Empirical Dispersion Energy =           0.0000000000000000
    PCM Polarization Energy =               0.0000000000000000
    EFP Energy =                            0.0000000000000000
    Total Energy =                       -157.3431278465184278



Properties will be evaluated at   0.000000,   0.000000,   0.000000 Bohr

Properties computed using the SCF density matrix

  Nuclear Dipole Moment: (a.u.)
     X:     0.9786      Y:     0.3959      Z:    -0.0581

  Electronic Dipole Moment: (a.u.)
     X:    -1.0088      Y:    -0.4090      Z:     0.0603

  Dipole Moment: (a.u.)
     X:    -0.0302      Y:    -0.0130      Z:     0.0022     Total:     0.0330

  Dipole Moment: (Debye)
     X:    -0.0769      Y:    -0.0331      Z:     0.0057     Total:     0.0839


*** tstop() called on gpu-1-10.local at Wed Jun 14 14:27:38 2017
Module time:
	user time   =     111.18 seconds =       1.85 minutes
	system time =       0.87 seconds =       0.01 minutes
	total time  =        113 seconds =       1.88 minutes
Total time:
	user time   =     111.19 seconds =       1.85 minutes
	system time =       0.87 seconds =       0.01 minutes
	total time  =        113 seconds =       1.88 minutes

  //>>>>>>>>>>>>>>>>>>>>>>>>>>>>>>>>>>>//
  //               DFMP2               //
  //<<<<<<<<<<<<<<<<<<<<<<<<<<<<<<<<<<<//

   => Loading Basis Set <=

    Name: (AUG-CC-PVTZ AUX)
    Role: RIFIT
    Keyword: DF_BASIS_MP2
    atoms 1-3, 5-6, 8-9, 11-13 entry H          line    29 file /cbio/jclab/home/chayas/anaconda/envs/py35/share/psi4/basis/aug-cc-pvtz-ri.gbs 
    atoms 4, 7, 10, 14         entry C          line   147 file /cbio/jclab/home/chayas/anaconda/envs/py35/share/psi4/basis/aug-cc-pvtz-ri.gbs 

	 --------------------------------------------------------
	                          DF-MP2                         
	      2nd-Order Density-Fitted Moller-Plesset Theory     
	              RMP2 Wavefunction,   1 Threads             
	                                                         
	        Rob Parrish, Justin Turney, Andy Simmonett,      
	           Ed Hohenstein, and C. David Sherrill          
	 --------------------------------------------------------

   => Auxiliary Basis Set <=

  Basis Set: (AUG-CC-PVTZ AUX)
    Blend: AUG-CC-PVTZ-RI
    Number of shells: 252
    Number of basis function: 884
    Number of Cartesian functions: 1094
    Spherical Harmonics?: true
    Max angular momentum: 4

	 --------------------------------------------------------
	                 NBF =   414, NAUX =   884
	 --------------------------------------------------------
	   CLASS    FOCC     OCC    AOCC    AVIR     VIR    FVIR
	   PAIRS       0      17      17     397     397       0
	 --------------------------------------------------------


         ------------------------------------------------------------
                                     CPHF                           
                                  Rob Parrish                       
         ------------------------------------------------------------

  ==> Geometry <==

    Molecular point group: c1
    Full point group: C1

    Geometry (in Angstrom), charge = 0, multiplicity = 1:

       Center              X                  Y                   Z               Mass       
    ------------   -----------------  -----------------  -----------------  -----------------
           H          0.323583309871     1.208132677232    -1.487198533840     1.007825032070
           H         -0.299416690129     2.442132677232    -0.417198533840     1.007825032070
           H          0.990583309871     1.392132677232     0.116801466160     1.007825032070
           C          0.098583309871     1.449132677232    -0.469198533840    12.000000000000
           H         -1.163416690129     0.691132677232     1.094801466160     1.007825032070
           H         -1.833416690129     0.507132677232    -0.508198533840     1.007825032070
           C         -0.939416690129     0.450132677232     0.076801466160    12.000000000000
           H         -0.905416690129    -1.612867322768     0.673801466160     1.007825032070
           H         -0.466416690129    -1.349867322768    -0.996198533840     1.007825032070
           C         -0.367416690129    -0.977867322768     0.001801466160    12.000000000000
           H          1.517583309871    -1.948867322768     0.343801466160     1.007825032070
           H          1.220583309871    -0.584867322768     1.393801466160     1.007825032070
           H          1.659583309871    -0.321867322768    -0.276198533840     1.007825032070
           C          1.120583309871    -0.956867322768     0.395801466160    12.000000000000

  Nuclear repulsion =  135.629412006953885
  Reference energy  = -157.343127846518428

  ==> Basis Set <==

  Basis Set: AUG-CC-PVTZ
    Blend: AUG-CC-PVTZ
    Number of shells: 146
    Number of basis function: 414
    Number of Cartesian functions: 470
    Spherical Harmonics?: true
    Max angular momentum: 3

  ==> CGRSolver (by Rob Parrish) <==

   Number of roots    =         1
   Preconditioning    =    JACOBI
   Convergence cutoff =     1E-06
   Maximum iterations =       100

  ==> CPHFRHamiltonian (by Rob Parrish) <== 

  ==> DFJK: Density-Fitted J/K Matrices <==

    J tasked:                  Yes
    K tasked:                  Yes
    wK tasked:                  No
    OpenMP threads:              1
    Integrals threads:           1
    Memory (MB):               715
    Algorithm:                Core
    Integral Cache:           NONE
    Schwarz Cutoff:          1E-12
    Fitting Condition:       1E-12

   => Auxiliary Basis Set <=

  Basis Set: (AUG-CC-PVTZ AUX)
    Blend: AUG-CC-PVTZ-JKFIT
    Number of shells: 260
    Number of basis function: 876
    Number of Cartesian functions: 1074
    Spherical Harmonics?: true
    Max angular momentum: 4

  ==> CPHF Iterations <==

  => Iterations <=

             Iter  Converged  Remaining    Residual
  CGR           1          0          1   8.639E-02
  CGR           2          0          1   1.367E-02
  CGR           3          0          1   3.220E-03
  CGR           4          0          1   7.815E-04
  CGR           5          0          1   1.788E-04
  CGR           6          0          1   3.125E-05
  CGR           7          0          1   5.679E-06
  CGR           8          0          1   1.274E-06
  CGR           9          1          0   1.805E-07

    CGRSolver converged.

  ==> DFCorrGrad: Density-Fitted Correlated Gradients <==

    OpenMP threads:              1
    Integrals threads:           1
    Memory (MB):               715
    Schwarz Cutoff:          0E+00
    Fitting Condition:       1E-12

   => Auxiliary Basis Set <=

  Basis Set: (AUG-CC-PVTZ AUX)
    Blend: AUG-CC-PVTZ-JKFIT
    Number of shells: 260
    Number of basis function: 876
    Number of Cartesian functions: 1074
    Spherical Harmonics?: true
    Max angular momentum: 4

	-----------------------------------------------------------
	 ==================> DF-MP2 Energies <==================== 
	-----------------------------------------------------------
	 Reference Energy          =    -157.3431278465184278 [Eh]
	 Singles Energy            =      -0.0000000000000001 [Eh]
	 Same-Spin Energy          =      -0.1669681438938218 [Eh]
	 Opposite-Spin Energy      =      -0.6410245481819249 [Eh]
	 Correlation Energy        =      -0.8079926920757469 [Eh]
	 Total Energy              =    -158.1511205385941707 [Eh]
	-----------------------------------------------------------
	 ================> DF-SCS-MP2 Energies <================== 
	-----------------------------------------------------------
	 SCS Same-Spin Scale       =       0.3333333333333333 [-]
	 SCS Opposite-Spin Scale   =       1.2000000000000000 [-]
	 SCS Same-Spin Energy      =      -0.0556560479646073 [Eh]
	 SCS Opposite-Spin Energy  =      -0.7692294578183099 [Eh]
	 SCS Correlation Energy    =      -0.8248855057829173 [Eh]
	 SCS Total Energy          =    -158.1680133523013581 [Eh]
	-----------------------------------------------------------


  -Total Gradient:
     Atom            X                  Y                   Z
    ------   -----------------  -----------------  -----------------
       1       -0.004532435582     0.000986995405     0.011893004102
       2        0.002112520787    -0.011523792812     0.001455592401
       3       -0.007454733386    -0.005998551430    -0.003809616943
       4        0.024069376565     0.007819658519    -0.010517229099
       5        0.004150216137    -0.003346728077    -0.011879785355
       6        0.012262420472    -0.002093212296     0.003846958991
       7       -0.027210689130     0.006426896458     0.012976060576
       8        0.007101499804     0.009911389482    -0.005080348433
       9        0.001861292183     0.005791880616     0.011646244726
      10       -0.015983920063    -0.024162245691    -0.010383393185
      11       -0.007007840315     0.010566110214    -0.001139264730
      12       -0.003690324859    -0.004385575148    -0.011643678887
      13       -0.008553206861    -0.000043532270     0.004271013140
      14        0.022875824247     0.010050707031     0.008364442696


*** tstop() called on gpu-1-10.local at Wed Jun 14 14:34:56 2017
Module time:
	user time   =     545.53 seconds =       9.09 minutes
	system time =       4.53 seconds =       0.08 minutes
	total time  =        551 seconds =       9.18 minutes
Total time:
	user time   =     545.54 seconds =       9.09 minutes
	system time =       4.53 seconds =       0.08 minutes
	total time  =        551 seconds =       9.18 minutes

			-----------------------------------------
			 OPTKING 2.0: for geometry optimizations 
			  - R.A. King,  Bethel University        
			-----------------------------------------

	Internal coordinates to be generated automatically.
	Detected frag 1 with atoms:  1 2 3 4 5 6 7 8 9 10 11 12 13 14
	---Fragment 1 Bond Connectivity---
	 1 : 4
	 2 : 4
	 3 : 4
	 4 : 1 2 3 7
	 5 : 7
	 6 : 7
	 7 : 4 5 6 10
	 8 : 10
	 9 : 10
	 10 : 7 8 9 14
	 11 : 14
	 12 : 14
	 13 : 14
	 14 : 10 11 12 13

	Assuming in current code that numbering for constraints corresponds to unified fragment.
	Fixed dihedral atom list: 
	    14    10     7     4
	---Fragment 1 Geometry and Gradient---
	 H           0.6114838368        2.2830398922       -2.8103979342
	 H          -0.5658155440        4.6149619401       -0.7883909720
	 H           1.8719311675        2.6307495006        0.2207227830
	 C           0.1862954569        2.7384638902       -0.8866567309
	 H          -2.1985389228        1.3060514815        2.0688749409
	 H          -3.4646554318        0.9583418730       -0.9603560501
	 C          -1.7752402690        0.8506274834        0.1451337376
	 H          -1.7109895805       -3.0478775287        1.2733002390
	 H          -0.8813998082       -2.5508795558       -1.8825424029
	 C          -0.6943169210       -1.8479014343        0.0034042777
	 H           2.8678168395       -3.6828255094        0.6496906151
	 H           2.3065681780       -1.1052390641        2.6339030547
	 H           3.1361579504       -0.6082410912       -0.5219395873
	 C           2.1175955647       -1.8082171855        0.7479563740
	            -0.0045324356        0.0009869954        0.0118930041
	             0.0021125208       -0.0115237928        0.0014555924
	            -0.0074547334       -0.0059985514       -0.0038096169
	             0.0240693766        0.0078196585       -0.0105172291
	             0.0041502161       -0.0033467281       -0.0118797854
	             0.0122624205       -0.0020932123        0.0038469590
	            -0.0272106891        0.0064268965        0.0129760606
	             0.0071014998        0.0099113895       -0.0050803484
	             0.0018612922        0.0057918806        0.0116462447
	            -0.0159839201       -0.0241622457       -0.0103833932
	            -0.0070078403        0.0105661102       -0.0011392647
	            -0.0036903249       -0.0043855751       -0.0116436789
	            -0.0085532069       -0.0000435323        0.0042710131
	             0.0228758242        0.0100507070        0.0083644427

	Previous optimization step data not found.  Starting new optimization.

	---Fragment 1 Intrafragment Coordinates---
	 - Coordinate -           - BOHR/RAD -       - ANG/DEG -
	 R(1,4)           =         2.022122	       1.070061
	 R(2,4)           =         2.023999	       1.071054
	 R(3,4)           =         2.019718	       1.068789
	 R(4,7)           =         2.911381	       1.540637
	 R(5,7)           =         2.021725	       1.069851
	 R(6,7)           =         2.021839	       1.069911
	 R(7,10)          =         2.910419	       1.540128
	 R(8,10)          =         2.021436	       1.069698
	 R(9,10)          =         2.021379	       1.069668
	 R(10,14)         =         2.909087	       1.539422
	 R(11,14)         =         2.021545	       1.069756
	 R(12,14)         =         2.021555	       1.069761
	 R(13,14)         =         2.022387	       1.070201
	 B(1,4,2)         =         1.910419	     109.458919
	 B(1,4,3)         =         1.911457	     109.518419
	 B(1,4,7)         =         1.910050	     109.437830
	 B(2,4,3)         =         1.910233	     109.448298
	 B(2,4,7)         =         1.910926	     109.488013
	 B(3,4,7)         =         1.910714	     109.475850
	 B(4,7,5)         =         1.909452	     109.403536
	 B(4,7,6)         =         1.912030	     109.551277
	 B(4,7,10)        =         1.911063	     109.495820
	 B(5,7,6)         =         1.910623	     109.470610
	 B(5,7,10)        =         1.910241	     109.448737
	 B(6,7,10)        =         1.910390	     109.457296
	 B(7,10,8)        =         1.910303	     109.452301
	 B(7,10,9)        =         1.910824	     109.482155
	 B(7,10,14)       =         1.911213	     109.504437
	 B(8,10,9)        =         1.910417	     109.458846
	 B(8,10,14)       =         1.910766	     109.478806
	 B(9,10,14)       =         1.910276	     109.450772
	 B(10,14,11)      =         1.910943	     109.488965
	 B(10,14,12)      =         1.911204	     109.503926
	 B(10,14,13)      =         1.911557	     109.524173
	 B(11,14,12)      =         1.910410	     109.458432
	 B(11,14,13)      =         1.910054	     109.438058
	 B(12,14,13)      =         1.909629	     109.413709
	 D(1,4,7,5)       =         3.140860	     179.958050
	 D(1,4,7,6)       =        -1.047812	     -60.035182
	 D(1,4,7,10)      =         1.047406	      60.011956
	 D(2,4,7,5)       =        -1.048370	     -60.067180
	 D(2,4,7,6)       =         1.046143	      59.939588
	 D(2,4,7,10)      =         3.141361	     179.986726
	 D(3,4,7,5)       =         1.045764	      59.917863
	 D(3,4,7,6)       =         3.140277	     179.924632
	 D(3,4,7,10)      =        -1.047690	     -60.028230
	 D(4,7,10,8)      =         2.792622	     160.005437
	 D(4,7,10,9)      =        -1.396518	     -80.014609
	 D(4,7,10,14)     =         0.697912	      39.987395
	 D(5,7,10,8)      =         0.699651	      40.087029
	 D(5,7,10,9)      =         2.793696	     160.066984
	 D(5,7,10,14)     =        -1.395059	     -79.931013
	 D(6,7,10,8)      =        -1.394343	     -79.889944
	 D(6,7,10,9)      =         0.699703	      40.090011
	 D(6,7,10,14)     =         2.794133	     160.092014
	 D(7,10,14,11)    =         3.141408	     179.989448
	 D(7,10,14,12)    =         1.046747	      59.974196
	 D(7,10,14,13)    =        -1.047335	     -60.007849
	 D(8,10,14,11)    =         1.046982	      59.987626
	 D(8,10,14,12)    =        -1.047680	     -60.027626
	 D(8,10,14,13)    =         3.141424	     179.990329
	 D(9,10,14,11)    =        -1.047012	     -59.989345
	 D(9,10,14,12)    =         3.141512	     179.995403
	 D(9,10,14,13)    =         1.047431	      60.013359

	Current energy   :      -158.1511205386

	Generating empirical Hessian (Schlegel '84) for each fragment.
	Adding user-defined constraint: Fragment 1; Coordinate 49:
		Value =     0.697912; Fixed value    =     0.698132
		Force =     0.000110; Force constant =     0.500000
	Removing off-diagonal coupling between coordinate 49 and others.
	Taking RFO optimization step.
	Going to follow RFO solution 1.
	Using RFO vector 1.

	Determining step-restricting scale parameter for RS-RFO.
	Maximum step size allowed    0.10000

	 Iter      |step|        alpha        rfo_root  
	------------------------------------------------
	    0     0.38654       1.00000           1
	    1     0.27429       3.41475           1
	    2     0.19241      11.31223           1
	    3     0.14032      28.12809           1
	    4     0.11257      49.99156           1
	    5     0.10189      64.08658           1
	    6     0.10005      67.01800           1
	    7     0.10000      67.10799           1
	------------------------------------------------
	Norm of target step-size    0.10000
	Projected energy change by RFO approximation:        -0.0065785036

	Back-transformation to cartesian coordinates...
	Could not converge backtransformation.
	Using first guess instead.

	--- Internal Coordinate Step in ANG or DEG, aJ/ANG or AJ/DEG ---
	 ---------------------------------------------------------------------------
	   Coordinate                Previous        Force       Change         New 
	   ----------                --------       ------       ------       ------
	    1 R(1,4)          =      1.070061     0.102899     0.008035     1.078095
	    2 R(2,4)          =      1.071054     0.093908     0.008245     1.079299
	    3 R(3,4)          =      1.068789     0.065831     0.006258     1.075046
	    4 R(4,7)          =      1.540637    -0.035087    -0.001441     1.539196
	    5 R(5,7)          =      1.069851     0.106501     0.008135     1.077986
	    6 R(6,7)          =      1.069911     0.102664     0.008136     1.078047
	    7 R(7,10)         =      1.540128     0.067842     0.005955     1.546083
	    8 R(8,10)         =      1.069698     0.104194     0.008253     1.077950
	    9 R(9,10)         =      1.069668     0.107536     0.008211     1.077878
	   10 R(10,14)        =      1.539422    -0.030372    -0.001033     1.538389
	   11 R(11,14)        =      1.069756     0.101694     0.008820     1.078575
	   12 R(12,14)        =      1.069761     0.104901     0.008180     1.077941
	   13 R(13,14)        =      1.070201     0.057798     0.005658     1.075859
	   14 B(1,4,2)        =    109.458919    -0.000224    -0.251635   109.207284
	   15 B(1,4,3)        =    109.518419    -0.000228    -0.321515   109.196904
	   16 B(1,4,7)        =    109.437830     0.000178     0.186340   109.624170
	   17 B(2,4,3)        =    109.448298    -0.000375    -0.438555   109.009743
	   18 B(2,4,7)        =    109.488013     0.000152     0.195135   109.683148
	   19 B(3,4,7)        =    109.475850     0.000497     0.624115   110.099965
	   20 B(4,7,5)        =    109.403536    -0.000664    -0.752249   108.651287
	   21 B(4,7,6)        =    109.551277    -0.000798    -0.823342   108.727935
	   22 B(4,7,10)       =    109.495820     0.002570     2.846101   112.341921
	   23 B(5,7,6)        =    109.470610     0.000296     0.186016   109.656626
	   24 B(5,7,10)       =    109.448737    -0.000642    -0.648838   108.799899
	   25 B(6,7,10)       =    109.457296    -0.000762    -0.819057   108.638238
	   26 B(7,10,8)       =    109.452301    -0.000765    -0.823139   108.629162
	   27 B(7,10,9)       =    109.482155    -0.000645    -0.652437   108.829718
	   28 B(7,10,14)      =    109.504437     0.002574     2.849026   112.353463
	   29 B(8,10,9)       =    109.458846     0.000296     0.186583   109.645429
	   30 B(8,10,14)      =    109.478806    -0.000791    -0.812988   108.665819
	   31 B(9,10,14)      =    109.450772    -0.000670    -0.759160   108.691613
	   32 B(10,14,11)     =    109.488965     0.000158     0.202673   109.691637
	   33 B(10,14,12)     =    109.503926     0.000165     0.171314   109.675240
	   34 B(10,14,13)     =    109.524173     0.000492     0.619548   110.143721
	   35 B(11,14,12)     =    109.458432    -0.000222    -0.249586   109.208846
	   36 B(11,14,13)     =    109.438058    -0.000376    -0.443033   108.995025
	   37 B(12,14,13)     =    109.413709    -0.000217    -0.308138   109.105571
	   38 D(1,4,7,5)      =    179.958050     0.000066     0.324616   180.282666
	   39 D(1,4,7,6)      =    -60.035182    -0.000056    -0.387028   -60.422209
	   40 D(1,4,7,10)     =     60.011956    -0.000020    -0.157138    59.854818
	   41 D(2,4,7,5)      =    -60.067180     0.000050     0.250463   -59.816717
	   42 D(2,4,7,6)      =     59.939588    -0.000073    -0.461180    59.478407
	   43 D(2,4,7,10)     =    179.986726    -0.000037    -0.231291   179.755435
	   44 D(3,4,7,5)      =     59.917863     0.000036     0.218158    60.136021
	   45 D(3,4,7,6)      =    179.924632    -0.000087    -0.493486   179.431146
	   46 D(3,4,7,10)     =    -60.028230    -0.000051    -0.263596   -60.291827
	   47 D(4,7,10,8)     =    160.005437     0.000084     0.420451   160.425888
	   48 D(4,7,10,9)     =    -80.014609    -0.000030    -0.231872   -80.246480
	   49 D(4,7,10,14)    =     39.987395     0.000053     0.186146    40.173541
	   50 D(5,7,10,8)     =     40.087029     0.000001    -0.003073    40.083957
	   51 D(5,7,10,9)     =    160.066984    -0.000114    -0.655396   159.411588
	   52 D(5,7,10,14)    =    -79.931013    -0.000031    -0.237378   -80.168390
	   53 D(6,7,10,8)     =    -79.889944     0.000114     0.644758   -79.245186
	   54 D(6,7,10,9)     =     40.090011    -0.000000    -0.007565    40.082446
	   55 D(6,7,10,14)    =    160.092014     0.000083     0.410453   160.502468
	   56 D(7,10,14,11)   =    179.989448    -0.000037    -0.230458   179.758990
	   57 D(7,10,14,12)   =     59.974196    -0.000020    -0.154564    59.819632
	   58 D(7,10,14,13)   =    -60.007849    -0.000051    -0.265939   -60.273788
	   59 D(8,10,14,11)   =     59.987626    -0.000072    -0.459764    59.527862
	   60 D(8,10,14,12)   =    -60.027626    -0.000055    -0.383871   -60.411497
	   61 D(8,10,14,13)   =    179.990329    -0.000087    -0.495246   179.495084
	   62 D(9,10,14,11)   =    -59.989345     0.000049     0.248120   -59.741225
	   63 D(9,10,14,12)   =    179.995403     0.000066     0.324013   180.319417
	   64 D(9,10,14,13)   =     60.013359     0.000035     0.212638    60.225997
	 ---------------------------------------------------------------------------
	Successfully symmetrized geometry.
	 Forces used to impose fixed constraints are not included.
	  Forces zeroed: 49 

  ==> Convergence Check <==

  Measures of convergence in internal coordinates in au.
  Criteria marked as inactive (o), active & met (*), and active & unmet ( ).
  --------------------------------------------------------------------------------------------- ~
   Step     Total Energy     Delta E     MAX Force     RMS Force      MAX Disp      RMS Disp    ~
  --------------------------------------------------------------------------------------------- ~
    Convergence Criteria    1.00e-06 *    3.00e-04 *             o    1.20e-03 *             o  ~
  --------------------------------------------------------------------------------------------- ~
      1    -158.15112054   -1.58e+02      3.38e-02      8.85e-03 o    4.97e-02      1.26e-02 o  ~
  ---------------------------------------------------------------------------------------------

	Writing optimization data to binary file.
	Structure for next step:
	Cartesian Geometry (in Angstrom)
	    H     0.3055146610   1.2800499128  -1.5055621937
	    H    -0.3808739556   2.4889946913  -0.4284787515
	    H     0.9670336055   1.5014952421   0.1048928826
	    C     0.0647572906   1.5073178235  -0.4795626825
	    H    -1.1575758651   0.7048578621   1.0870916622
	    H    -1.8227862786   0.4917484313  -0.5309785509
	    C    -0.9240424455   0.4602073302   0.0635385270
	    H    -0.9064053465  -1.5932892691   0.6959567456
	    H    -0.4520729923  -1.3551602377  -0.9898465204
	    C    -0.3481915485  -0.9737403544   0.0129242313
	    H     1.4936019756  -2.0388929304   0.3613751375
	    H     1.2594973015  -0.6482937070   1.4110205771
	    H     1.7196433922  -0.4168088008  -0.2662627006
	    C     1.1380665439  -1.0216285127   0.4071121623
			--------------------------
			 OPTKING Finished Execution 
			--------------------------

    Structure for next step:
    Molecular point group: c1
    Full point group: C1

    Geometry (in Angstrom), charge = 0, multiplicity = 1:

    H            0.302059326985     1.278606658471    -1.505336282058
    H           -0.384329289614     2.487551437004    -0.428252839936
    H            0.963578271529     1.500051987768     0.105118794186
    C            0.061301956605     1.505874569239    -0.479336770871
    H           -1.161031199127     0.703414607808     1.087317573782
    H           -1.826241612616     0.490305176994    -0.530752639282
    C           -0.927497779460     0.458764075904     0.063764438645
    H           -0.909860680514    -1.594732523357     0.696182657243
    H           -0.455528326346    -1.356603492039    -0.989620608800
    C           -0.351646882476    -0.975183608725     0.013150142945
    H            1.490146641569    -2.040336184670     0.361601049130
    H            1.256041967481    -0.649736961271     1.411246488746
    H            1.716188058227    -0.418252055110    -0.266036789024
    C            1.134611209868    -1.023071766971     0.407338073903

gradient() will perform analytic gradient computation.

*** tstart() called on gpu-1-10.local
*** at Wed Jun 14 14:34:56 2017

    SCF Algorithm Type (re)set to DF.

*** tstart() called on gpu-1-10.local
*** at Wed Jun 14 14:34:56 2017

   => Loading Basis Set <=

    Name: AUG-CC-PVTZ
    Role: ORBITAL
    Keyword: BASIS
    atoms 1-3, 5-6, 8-9, 11-13 entry H          line    34 file /cbio/jclab/home/chayas/anaconda/envs/py35/share/psi4/basis/aug-cc-pvtz.gbs 
    atoms 4, 7, 10, 14         entry C          line   221 file /cbio/jclab/home/chayas/anaconda/envs/py35/share/psi4/basis/aug-cc-pvtz.gbs 


         ---------------------------------------------------------
                                   SCF
            by Justin Turney, Rob Parrish, and Andy Simmonett
                              RHF Reference
                        1 Threads,    953 MiB Core
         ---------------------------------------------------------

  ==> Geometry <==

    Molecular point group: c1
    Full point group: C1

    Geometry (in Angstrom), charge = 0, multiplicity = 1:

       Center              X                  Y                   Z               Mass       
    ------------   -----------------  -----------------  -----------------  -----------------
           H          0.302059326985     1.278606658471    -1.505336282058     1.007825032070
           H         -0.384329289614     2.487551437004    -0.428252839936     1.007825032070
           H          0.963578271529     1.500051987768     0.105118794186     1.007825032070
           C          0.061301956605     1.505874569239    -0.479336770871    12.000000000000
           H         -1.161031199127     0.703414607808     1.087317573782     1.007825032070
           H         -1.826241612616     0.490305176994    -0.530752639282     1.007825032070
           C         -0.927497779460     0.458764075904     0.063764438645    12.000000000000
           H         -0.909860680514    -1.594732523357     0.696182657243     1.007825032070
           H         -0.455528326346    -1.356603492039    -0.989620608800     1.007825032070
           C         -0.351646882476    -0.975183608725     0.013150142945    12.000000000000
           H          1.490146641569    -2.040336184670     0.361601049130     1.007825032070
           H          1.256041967481    -0.649736961271     1.411246488746     1.007825032070
           H          1.716188058227    -0.418252055110    -0.266036789024     1.007825032070
           C          1.134611209868    -1.023071766971     0.407338073903    12.000000000000

  Running in c1 symmetry.

  Rotational constants: A =      0.40420  B =      0.18025  C =      0.14124 [cm^-1]
  Rotational constants: A =  12117.50253  B =   5403.71760  C =   4234.21482 [MHz]
  Nuclear repulsion =  134.096102657510670

  Charge       = 0
  Multiplicity = 1
  Electrons    = 34
  Nalpha       = 17
  Nbeta        = 17

  ==> Algorithm <==

  SCF Algorithm Type is DF.
  DIIS enabled.
  MOM disabled.
  Fractional occupation disabled.
  Guess Type is READ.
  Energy threshold   = 1.00e-10
  Density threshold  = 1.00e-10
  Integral threshold = 0.00e+00

  ==> Primary Basis <==

  Basis Set: AUG-CC-PVTZ
    Blend: AUG-CC-PVTZ
    Number of shells: 146
    Number of basis function: 414
    Number of Cartesian functions: 470
    Spherical Harmonics?: true
    Max angular momentum: 3

   => Loading Basis Set <=

    Name: (AUG-CC-PVTZ AUX)
    Role: JKFIT
    Keyword: DF_BASIS_SCF
    atoms 1-3, 5-6, 8-9, 11-13 entry H          line    69 file /cbio/jclab/home/chayas/anaconda/envs/py35/share/psi4/basis/aug-cc-pvtz-jkfit.gbs 
    atoms 4, 7, 10, 14         entry C          line   161 file /cbio/jclab/home/chayas/anaconda/envs/py35/share/psi4/basis/aug-cc-pvtz-jkfit.gbs 

  Reading orbitals from file 180, no projection.

  ==> Pre-Iterations <==

   -------------------------------------------------------
    Irrep   Nso     Nmo     Nalpha   Nbeta   Ndocc  Nsocc
   -------------------------------------------------------
     A        414     414       0       0       0       0
   -------------------------------------------------------
    Total     414     414      17      17      17       0
   -------------------------------------------------------

  ==> Integral Setup <==

  ==> DFJK: Density-Fitted J/K Matrices <==

    J tasked:                  Yes
    K tasked:                  Yes
    wK tasked:                  No
    OpenMP threads:              1
    Integrals threads:           1
    Memory (MB):               715
    Algorithm:                Core
    Integral Cache:           NONE
    Schwarz Cutoff:          1E-12
    Fitting Condition:       1E-12

   => Auxiliary Basis Set <=

  Basis Set: (AUG-CC-PVTZ AUX)
    Blend: AUG-CC-PVTZ-JKFIT
    Number of shells: 260
    Number of basis function: 876
    Number of Cartesian functions: 1074
    Spherical Harmonics?: true
    Max angular momentum: 4

  Minimum eigenvalue in the overlap matrix is 6.4124542592E-06.
  Using Symmetric Orthogonalization.

  SCF Guess: Orbitals guess was supplied from a previous computation.

  ==> Iterations <==

                           Total Energy        Delta E     RMS |[F,P]|

   @DF-RHF iter   0:  -157.30442659487588   -1.57304e+02   2.53250e-04 
   @DF-RHF iter   1:  -157.34871045854609   -4.42839e-02   6.71631e-05 
   @DF-RHF iter   2:  -157.34920819979473   -4.97741e-04   3.20360e-05 DIIS
   @DF-RHF iter   3:  -157.34930487411728   -9.66743e-05   7.83766e-06 DIIS
   @DF-RHF iter   4:  -157.34931731700129   -1.24429e-05   1.07318e-06 DIIS
   @DF-RHF iter   5:  -157.34931755091958   -2.33918e-07   2.30195e-07 DIIS
   @DF-RHF iter   6:  -157.34931756209915   -1.11796e-08   5.40263e-08 DIIS
   @DF-RHF iter   7:  -157.34931756278809   -6.88942e-10   1.16306e-08 DIIS
   @DF-RHF iter   8:  -157.34931756281327   -2.51816e-11   3.28724e-09 DIIS
   @DF-RHF iter   9:  -157.34931756281620   -2.92744e-12   8.84014e-10 DIIS
   @DF-RHF iter  10:  -157.34931756281776   -1.56319e-12   1.65442e-10 DIIS
   @DF-RHF iter  11:  -157.34931756281412    3.63798e-12   2.94986e-11 DIIS

  ==> Post-Iterations <==

    Orbital Energies (a.u.)
    -----------------------

    Doubly Occupied:                                                      

       1A    -11.210041     2A    -11.209468     3A    -11.201816  
       4A    -11.201745     5A     -1.069994     6A     -0.972663  
       7A     -0.879321     8A     -0.773296     9A     -0.637117  
      10A     -0.620905    11A     -0.574160    12A     -0.534115  
      13A     -0.528801    14A     -0.509157    15A     -0.463846  
      16A     -0.455212    17A     -0.453616  

    Virtual:                                                              

      18A      0.031749    19A      0.038111    20A      0.039696  
      21A      0.040072    22A      0.057595    23A      0.060114  
      24A      0.061519    25A      0.062912    26A      0.063461  
      27A      0.086828    28A      0.120648    29A      0.123223  
      30A      0.123325    31A      0.126165    32A      0.126659  
      33A      0.131615    34A      0.138194    35A      0.140818  
      36A      0.142133    37A      0.147929    38A      0.161073  
      39A      0.165827    40A      0.170865    41A      0.192018  
      42A      0.198086    43A      0.215785    44A      0.234034  
      45A      0.240322    46A      0.273512    47A      0.273550  
      48A      0.285806    49A      0.289666    50A      0.303829  
      51A      0.304235    52A      0.309645    53A      0.315359  
      54A      0.317445    55A      0.329955    56A      0.330179  
      57A      0.333252    58A      0.349775    59A      0.351979  
      60A      0.356196    61A      0.358040    62A      0.363144  
      63A      0.365621    64A      0.377482    65A      0.386018  
      66A      0.394695    67A      0.409936    68A      0.412790  
      69A      0.417952    70A      0.426033    71A      0.441813  
      72A      0.442564    73A      0.448775    74A      0.450303  
      75A      0.458860    76A      0.461891    77A      0.464216  
      78A      0.471729    79A      0.475781    80A      0.477017  
      81A      0.479000    82A      0.490554    83A      0.497376  
      84A      0.502084    85A      0.517353    86A      0.532390  
      87A      0.539576    88A      0.550810    89A      0.552446  
      90A      0.555091    91A      0.564268    92A      0.567013  
      93A      0.569531    94A      0.575681    95A      0.584688  
      96A      0.600113    97A      0.607704    98A      0.615955  
      99A      0.630640   100A      0.630737   101A      0.643444  
     102A      0.663228   103A      0.671152   104A      0.676933  
     105A      0.682645   106A      0.700040   107A      0.753581  
     108A      0.781161   109A      0.789985   110A      0.811204  
     111A      0.814686   112A      0.830272   113A      0.833537  
     114A      0.836649   115A      0.859282   116A      0.867266  
     117A      0.867924   118A      0.869374   119A      0.882354  
     120A      0.884232   121A      0.900526   122A      0.910574  
     123A      0.914888   124A      0.921388   125A      0.933775  
     126A      0.934861   127A      0.949649   128A      0.966551  
     129A      0.974035   130A      0.974461   131A      0.986005  
     132A      0.986436   133A      0.992692   134A      0.994712  
     135A      1.005131   136A      1.033145   137A      1.040650  
     138A      1.050446   139A      1.059021   140A      1.067215  
     141A      1.083455   142A      1.095934   143A      1.103875  
     144A      1.104735   145A      1.111231   146A      1.126763  
     147A      1.130449   148A      1.146677   149A      1.146857  
     150A      1.159840   151A      1.162585   152A      1.189822  
     153A      1.194407   154A      1.199731   155A      1.206444  
     156A      1.217525   157A      1.228429   158A      1.236503  
     159A      1.253660   160A      1.258298   161A      1.264379  
     162A      1.272928   163A      1.280749   164A      1.296883  
     165A      1.311819   166A      1.327388   167A      1.335209  
     168A      1.355229   169A      1.356236   170A      1.371985  
     171A      1.390836   172A      1.412163   173A      1.427282  
     174A      1.438457   175A      1.465838   176A      1.468337  
     177A      1.481286   178A      1.496721   179A      1.503764  
     180A      1.514064   181A      1.527415   182A      1.538074  
     183A      1.547200   184A      1.564737   185A      1.589189  
     186A      1.596863   187A      1.614328   188A      1.620465  
     189A      1.645960   190A      1.659144   191A      1.660477  
     192A      1.671406   193A      1.674747   194A      1.689915  
     195A      1.693181   196A      1.698209   197A      1.718851  
     198A      1.739730   199A      1.744448   200A      1.752172  
     201A      1.763156   202A      1.774793   203A      1.775800  
     204A      1.786105   205A      1.804554   206A      1.809914  
     207A      1.818793   208A      1.841953   209A      1.844293  
     210A      1.851812   211A      1.878699   212A      1.894564  
     213A      1.907495   214A      1.918521   215A      1.931389  
     216A      1.932726   217A      1.946152   218A      1.973143  
     219A      2.006871   220A      2.015169   221A      2.018885  
     222A      2.043154   223A      2.048810   224A      2.051355  
     225A      2.059557   226A      2.067751   227A      2.077974  
     228A      2.096084   229A      2.123534   230A      2.150206  
     231A      2.173723   232A      2.179411   233A      2.200942  
     234A      2.212947   235A      2.248074   236A      2.263373  
     237A      2.286861   238A      2.300376   239A      2.304155  
     240A      2.318706   241A      2.323331   242A      2.333214  
     243A      2.373446   244A      2.379604   245A      2.390664  
     246A      2.414890   247A      2.436419   248A      2.451738  
     249A      2.482169   250A      2.505787   251A      2.529860  
     252A      2.557116   253A      2.580185   254A      2.592394  
     255A      2.593457   256A      2.674272   257A      2.811618  
     258A      2.827107   259A      2.937592   260A      3.055706  
     261A      3.243238   262A      3.290582   263A      3.304363  
     264A      3.380872   265A      3.384796   266A      3.439168  
     267A      3.440184   268A      3.491189   269A      3.504955  
     270A      3.541394   271A      3.545852   272A      3.554250  
     273A      3.568726   274A      3.581053   275A      3.625367  
     276A      3.661591   277A      3.662181   278A      3.674780  
     279A      3.687111   280A      3.694296   281A      3.702866  
     282A      3.716230   283A      3.720101   284A      3.764968  
     285A      3.783513   286A      3.783734   287A      3.796880  
     288A      3.819175   289A      3.831656   290A      3.854374  
     291A      3.856392   292A      3.857269   293A      3.888363  
     294A      3.888414   295A      3.932906   296A      3.944671  
     297A      3.984429   298A      3.992596   299A      3.996535  
     300A      4.005605   301A      4.021101   302A      4.029482  
     303A      4.043524   304A      4.052679   305A      4.062756  
     306A      4.073483   307A      4.086327   308A      4.114897  
     309A      4.148241   310A      4.150296   311A      4.154296  
     312A      4.165488   313A      4.235290   314A      4.249440  
     315A      4.258746   316A      4.263829   317A      4.277744  
     318A      4.306571   319A      4.314726   320A      4.339161  
     321A      4.345538   322A      4.364449   323A      4.401097  
     324A      4.428693   325A      4.439217   326A      4.460096  
     327A      4.480097   328A      4.545434   329A      4.578658  
     330A      4.596785   331A      4.620608   332A      4.644214  
     333A      4.655838   334A      4.675182   335A      4.707890  
     336A      4.723562   337A      4.763501   338A      4.777084  
     339A      4.793517   340A      4.799846   341A      4.841045  
     342A      4.847207   343A      4.874056   344A      4.886298  
     345A      4.920056   346A      4.921789   347A      4.951890  
     348A      4.956263   349A      4.978180   350A      5.005886  
     351A      5.023785   352A      5.060164   353A      5.069538  
     354A      5.096386   355A      5.100589   356A      5.135865  
     357A      5.157478   358A      5.186964   359A      5.196337  
     360A      5.211543   361A      5.248869   362A      5.272845  
     363A      5.286502   364A      5.339480   365A      5.344537  
     366A      5.377147   367A      5.386933   368A      5.391076  
     369A      5.404772   370A      5.417363   371A      5.468500  
     372A      5.483676   373A      5.497117   374A      5.521773  
     375A      5.527537   376A      5.577257   377A      5.579411  
     378A      5.658467   379A      5.668227   380A      5.688788  
     381A      5.702276   382A      5.752772   383A      5.761529  
     384A      5.822130   385A      5.823357   386A      5.846377  
     387A      5.884525   388A      5.947115   389A      5.953319  
     390A      5.992530   391A      6.089596   392A      6.115641  
     393A      6.130169   394A      6.189568   395A      6.192978  
     396A      6.247084   397A      6.253764   398A      6.307144  
     399A      6.323004   400A      6.362103   401A      6.390887  
     402A      6.458277   403A      6.574388   404A      6.590021  
     405A      6.776446   406A      6.779924   407A      6.868505  
     408A      6.897265   409A      6.920603   410A      6.967127  
     411A     17.984551   412A     18.155999   413A     18.840466  
     414A     19.176078  

    Final Occupation by Irrep:
              A 
    DOCC [    17 ]

  Energy converged.

  @DF-RHF Final Energy:  -157.34931756281412

   => Energetics <=

    Nuclear Repulsion Energy =            134.0961026575106700
    One-Electron Energy =                -476.3002938936837154
    Two-Electron Energy =                 184.8548736733589521
    DFT Exchange-Correlation Energy =       0.0000000000000000
    Empirical Dispersion Energy =           0.0000000000000000
    PCM Polarization Energy =               0.0000000000000000
    EFP Energy =                            0.0000000000000000
    Total Energy =                       -157.3493175628141216



Properties will be evaluated at   0.000000,   0.000000,   0.000000 Bohr

Properties computed using the SCF density matrix

  Nuclear Dipole Moment: (a.u.)
     X:     0.9291      Y:     0.3752      Z:    -0.0549

  Electronic Dipole Moment: (a.u.)
     X:    -0.9594      Y:    -0.3879      Z:     0.0570

  Dipole Moment: (a.u.)
     X:    -0.0303      Y:    -0.0127      Z:     0.0021     Total:     0.0329

  Dipole Moment: (Debye)
     X:    -0.0770      Y:    -0.0323      Z:     0.0053     Total:     0.0837


*** tstop() called on gpu-1-10.local at Wed Jun 14 14:36:32 2017
Module time:
	user time   =      93.12 seconds =       1.55 minutes
	system time =       0.52 seconds =       0.01 minutes
	total time  =         96 seconds =       1.60 minutes
Total time:
	user time   =     638.76 seconds =      10.65 minutes
	system time =       5.15 seconds =       0.09 minutes
	total time  =        647 seconds =      10.78 minutes

  //>>>>>>>>>>>>>>>>>>>>>>>>>>>>>>>>>>>//
  //               DFMP2               //
  //<<<<<<<<<<<<<<<<<<<<<<<<<<<<<<<<<<<//

   => Loading Basis Set <=

    Name: (AUG-CC-PVTZ AUX)
    Role: RIFIT
    Keyword: DF_BASIS_MP2
    atoms 1-3, 5-6, 8-9, 11-13 entry H          line    29 file /cbio/jclab/home/chayas/anaconda/envs/py35/share/psi4/basis/aug-cc-pvtz-ri.gbs 
    atoms 4, 7, 10, 14         entry C          line   147 file /cbio/jclab/home/chayas/anaconda/envs/py35/share/psi4/basis/aug-cc-pvtz-ri.gbs 

	 --------------------------------------------------------
	                          DF-MP2                         
	      2nd-Order Density-Fitted Moller-Plesset Theory     
	              RMP2 Wavefunction,   1 Threads             
	                                                         
	        Rob Parrish, Justin Turney, Andy Simmonett,      
	           Ed Hohenstein, and C. David Sherrill          
	 --------------------------------------------------------

   => Auxiliary Basis Set <=

  Basis Set: (AUG-CC-PVTZ AUX)
    Blend: AUG-CC-PVTZ-RI
    Number of shells: 252
    Number of basis function: 884
    Number of Cartesian functions: 1094
    Spherical Harmonics?: true
    Max angular momentum: 4

	 --------------------------------------------------------
	                 NBF =   414, NAUX =   884
	 --------------------------------------------------------
	   CLASS    FOCC     OCC    AOCC    AVIR     VIR    FVIR
	   PAIRS       0      17      17     397     397       0
	 --------------------------------------------------------


         ------------------------------------------------------------
                                     CPHF                           
                                  Rob Parrish                       
         ------------------------------------------------------------

  ==> Geometry <==

    Molecular point group: c1
    Full point group: C1

    Geometry (in Angstrom), charge = 0, multiplicity = 1:

       Center              X                  Y                   Z               Mass       
    ------------   -----------------  -----------------  -----------------  -----------------
           H          0.302059326985     1.278606658471    -1.505336282058     1.007825032070
           H         -0.384329289614     2.487551437004    -0.428252839936     1.007825032070
           H          0.963578271529     1.500051987768     0.105118794186     1.007825032070
           C          0.061301956605     1.505874569239    -0.479336770871    12.000000000000
           H         -1.161031199127     0.703414607808     1.087317573782     1.007825032070
           H         -1.826241612616     0.490305176994    -0.530752639282     1.007825032070
           C         -0.927497779460     0.458764075904     0.063764438645    12.000000000000
           H         -0.909860680514    -1.594732523357     0.696182657243     1.007825032070
           H         -0.455528326346    -1.356603492039    -0.989620608800     1.007825032070
           C         -0.351646882476    -0.975183608725     0.013150142945    12.000000000000
           H          1.490146641569    -2.040336184670     0.361601049130     1.007825032070
           H          1.256041967481    -0.649736961271     1.411246488746     1.007825032070
           H          1.716188058227    -0.418252055110    -0.266036789024     1.007825032070
           C          1.134611209868    -1.023071766971     0.407338073903    12.000000000000

  Nuclear repulsion =  134.096102657510670
  Reference energy  = -157.349317562814122

  ==> Basis Set <==

  Basis Set: AUG-CC-PVTZ
    Blend: AUG-CC-PVTZ
    Number of shells: 146
    Number of basis function: 414
    Number of Cartesian functions: 470
    Spherical Harmonics?: true
    Max angular momentum: 3

  ==> CGRSolver (by Rob Parrish) <==

   Number of roots    =         1
   Preconditioning    =    JACOBI
   Convergence cutoff =     1E-06
   Maximum iterations =       100

  ==> CPHFRHamiltonian (by Rob Parrish) <== 

  ==> DFJK: Density-Fitted J/K Matrices <==

    J tasked:                  Yes
    K tasked:                  Yes
    wK tasked:                  No
    OpenMP threads:              1
    Integrals threads:           1
    Memory (MB):               715
    Algorithm:                Core
    Integral Cache:           NONE
    Schwarz Cutoff:          1E-12
    Fitting Condition:       1E-12

   => Auxiliary Basis Set <=

  Basis Set: (AUG-CC-PVTZ AUX)
    Blend: AUG-CC-PVTZ-JKFIT
    Number of shells: 260
    Number of basis function: 876
    Number of Cartesian functions: 1074
    Spherical Harmonics?: true
    Max angular momentum: 4

  ==> CPHF Iterations <==

  => Iterations <=

             Iter  Converged  Remaining    Residual
  CGR           1          0          1   8.604E-02
  CGR           2          0          1   1.366E-02
  CGR           3          0          1   3.211E-03
  CGR           4          0          1   7.885E-04
  CGR           5          0          1   1.798E-04
  CGR           6          0          1   3.081E-05
  CGR           7          0          1   5.368E-06
  CGR           8          0          1   1.167E-06
  CGR           9          1          0   1.651E-07

    CGRSolver converged.

  ==> DFCorrGrad: Density-Fitted Correlated Gradients <==

    OpenMP threads:              1
    Integrals threads:           1
    Memory (MB):               715
    Schwarz Cutoff:          0E+00
    Fitting Condition:       1E-12

   => Auxiliary Basis Set <=

  Basis Set: (AUG-CC-PVTZ AUX)
    Blend: AUG-CC-PVTZ-JKFIT
    Number of shells: 260
    Number of basis function: 876
    Number of Cartesian functions: 1074
    Spherical Harmonics?: true
    Max angular momentum: 4

	-----------------------------------------------------------
	 ==================> DF-MP2 Energies <==================== 
	-----------------------------------------------------------
	 Reference Energy          =    -157.3493175628141216 [Eh]
	 Singles Energy            =      -0.0000000000000000 [Eh]
	 Same-Spin Energy          =      -0.1660858351866977 [Eh]
	 Opposite-Spin Energy      =      -0.6404029146096195 [Eh]
	 Correlation Energy        =      -0.8064887497963171 [Eh]
	 Total Energy              =    -158.1558063126104514 [Eh]
	-----------------------------------------------------------
	 ================> DF-SCS-MP2 Energies <================== 
	-----------------------------------------------------------
	 SCS Same-Spin Scale       =       0.3333333333333333 [-]
	 SCS Opposite-Spin Scale   =       1.2000000000000000 [-]
	 SCS Same-Spin Energy      =      -0.0553619450622326 [Eh]
	 SCS Opposite-Spin Energy  =      -0.7684834975315434 [Eh]
	 SCS Correlation Energy    =      -0.8238454425937760 [Eh]
	 SCS Total Energy          =    -158.1731630054079005 [Eh]
	-----------------------------------------------------------


  -Total Gradient:
     Atom            X                  Y                   Z
    ------   -----------------  -----------------  -----------------
       1       -0.003247044645    -0.000446461204     0.006618965117
       2        0.000702983177    -0.005477671917     0.001204157808
       3       -0.005704998206    -0.003128839015    -0.002462317779
       4        0.016211678812     0.010963582498    -0.006171575579
       5        0.004278410497    -0.002064226470    -0.006317795063
       6        0.008133471447    -0.001071214162    -0.000171343763
       7       -0.021961479840     0.005166355328     0.007264438186
       8        0.005209295557     0.006443252652    -0.000647956935
       9        0.002256673616     0.004703748993     0.005996319192
      10       -0.012597726229    -0.019278784856    -0.005229880008
      11       -0.003588983733     0.004853889863    -0.001027491740
      12       -0.003221105796    -0.002199135085    -0.006370891796
      13       -0.005652291558    -0.001254210128     0.002909712399
      14        0.019181116903     0.002789713499     0.004405659962


*** tstop() called on gpu-1-10.local at Wed Jun 14 14:43:39 2017
Module time:
	user time   =     516.97 seconds =       8.62 minutes
	system time =       3.70 seconds =       0.06 minutes
	total time  =        523 seconds =       8.72 minutes
Total time:
	user time   =    1062.61 seconds =      17.71 minutes
	system time =       8.33 seconds =       0.14 minutes
	total time  =       1074 seconds =      17.90 minutes

			-----------------------------------------
			 OPTKING 2.0: for geometry optimizations 
			  - R.A. King,  Bethel University        
			-----------------------------------------

	Previous internal coordinate definitions found.
	---Fragment 1 Geometry and Gradient---
	 H           0.5708094039        2.4162164162       -2.8446733110
	 H          -0.7262771022        4.7007909574       -0.8092805831
	 H           1.8208990408        2.8346874420        0.1986457324
	 C           0.1158439094        2.8456905263       -0.9058152224
	 H          -2.1940309981        1.3292609666        2.0547324339
	 H          -3.4510965003        0.9265425061       -1.0029771325
	 C          -1.7527167920        0.8669384631        0.1204973261
	 H          -1.7193875053       -3.0136077244        1.3155945607
	 H          -0.8608237826       -2.5636090709       -1.8701119261
	 C          -0.6645163034       -1.8428299498        0.0248501688
	 H           2.8159690504       -3.8556766080        0.6833269522
	 H           2.3735753299       -1.2278249152        2.6668693697
	 H           3.2431254226       -0.7903818387       -0.5027366725
	 C           2.1441044540       -1.9333254539        0.7697574032
	            -0.0032470446       -0.0004464612        0.0066189651
	             0.0007029832       -0.0054776719        0.0012041578
	            -0.0057049982       -0.0031288390       -0.0024623178
	             0.0162116788        0.0109635825       -0.0061715756
	             0.0042784105       -0.0020642265       -0.0063177951
	             0.0081334714       -0.0010712142       -0.0001713438
	            -0.0219614798        0.0051663553        0.0072644382
	             0.0052092956        0.0064432527       -0.0006479569
	             0.0022566736        0.0047037490        0.0059963192
	            -0.0125977262       -0.0192787849       -0.0052298800
	            -0.0035889837        0.0048538899       -0.0010274917
	            -0.0032211058       -0.0021991351       -0.0063708918
	            -0.0056522916       -0.0012542101        0.0029097124
	             0.0191811169        0.0027897135        0.0044056600

	---Fragment 1 Intrafragment Coordinates---
	 - Coordinate -           - BOHR/RAD -       - ANG/DEG -
	 R(1,4)           =         2.037305	       1.078095
	 R(2,4)           =         2.039579	       1.079299
	 R(3,4)           =         2.031543	       1.075046
	 R(4,7)           =         2.908659	       1.539196
	 R(5,7)           =         2.037097	       1.077986
	 R(6,7)           =         2.037214	       1.078047
	 R(7,10)          =         2.921673	       1.546083
	 R(8,10)          =         2.037031	       1.077950
	 R(9,10)          =         2.036895	       1.077878
	 R(10,14)         =         2.907134	       1.538389
	 R(11,14)         =         2.038212	       1.078575
	 R(12,14)         =         2.037013	       1.077941
	 R(13,14)         =         2.033079	       1.075859
	 B(1,4,2)         =         1.906027	     109.207284
	 B(1,4,3)         =         1.905846	     109.196904
	 B(1,4,7)         =         1.913303	     109.624170
	 B(2,4,3)         =         1.902579	     109.009743
	 B(2,4,7)         =         1.914332	     109.683148
	 B(3,4,7)         =         1.921607	     110.099965
	 B(4,7,5)         =         1.896323	     108.651287
	 B(4,7,6)         =         1.897660	     108.727935
	 B(4,7,10)        =         1.960736	     112.341921
	 B(5,7,6)         =         1.913869	     109.656626
	 B(5,7,10)        =         1.898916	     108.799899
	 B(6,7,10)        =         1.896095	     108.638238
	 B(7,10,8)        =         1.895937	     108.629162
	 B(7,10,9)        =         1.899437	     108.829718
	 B(7,10,14)       =         1.960938	     112.353463
	 B(8,10,9)        =         1.913674	     109.645429
	 B(8,10,14)       =         1.896576	     108.665819
	 B(9,10,14)       =         1.897027	     108.691613
	 B(10,14,11)      =         1.914480	     109.691637
	 B(10,14,12)      =         1.914194	     109.675240
	 B(10,14,13)      =         1.922371	     110.143721
	 B(11,14,12)      =         1.906054	     109.208846
	 B(11,14,13)      =         1.902322	     108.995025
	 B(12,14,13)      =         1.904251	     109.105571
	 D(1,4,7,5)       =        -3.136659	    -179.717334
	 D(1,4,7,6)       =        -1.054566	     -60.422209
	 D(1,4,7,10)      =         1.044664	      59.854818
	 D(2,4,7,5)       =        -1.043999	     -59.816717
	 D(2,4,7,6)       =         1.038094	      59.478407
	 D(2,4,7,10)      =         3.137324	     179.755435
	 D(3,4,7,5)       =         1.049572	      60.136021
	 D(3,4,7,6)       =         3.131664	     179.431146
	 D(3,4,7,10)      =        -1.052291	     -60.291827
	 D(4,7,10,8)      =         2.799960	     160.425888
	 D(4,7,10,9)      =        -1.400565	     -80.246480
	 D(4,7,10,14)     =         0.701161	      40.173541
	 D(5,7,10,8)      =         0.699597	      40.083957
	 D(5,7,10,9)      =         2.782257	     159.411588
	 D(5,7,10,14)     =        -1.399202	     -80.168390
	 D(6,7,10,8)      =        -1.383089	     -79.245186
	 D(6,7,10,9)      =         0.699571	      40.082446
	 D(6,7,10,14)     =         2.801297	     160.502468
	 D(7,10,14,11)    =         3.137386	     179.758990
	 D(7,10,14,12)    =         1.044050	      59.819632
	 D(7,10,14,13)    =        -1.051976	     -60.273788
	 D(8,10,14,11)    =         1.038957	      59.527862
	 D(8,10,14,12)    =        -1.054380	     -60.411497
	 D(8,10,14,13)    =         3.132780	     179.495084
	 D(9,10,14,11)    =        -1.042681	     -59.741225
	 D(9,10,14,12)    =        -3.136018	    -179.680583
	 D(9,10,14,13)    =         1.051142	      60.225997

	Current energy   :      -158.1558063126

	Energy change for the previous step:
		Projected    :        -0.0065785036
		Actual       :        -0.0046857740

	Performing BFGS update.
	Previous computed or guess Hessian on step 1.
	Steps to be used in Hessian update: 1
	Adding user-defined constraint: Fragment 1; Coordinate 49:
		Value =     0.701161; Fixed value    =     0.698130
		Force =    -0.001591; Force constant =     0.525000
	Removing off-diagonal coupling between coordinate 49 and others.
	Taking RFO optimization step.
	Going to follow RFO solution 1.
	Using RFO vector 1.

	Determining step-restricting scale parameter for RS-RFO.
	Maximum step size allowed    0.10000

	 Iter      |step|        alpha        rfo_root  
	------------------------------------------------
	    0     0.20442       1.00000           1
	    1     0.15967       3.12996           1
	    2     0.12908       9.07377           1
	    3     0.10945      18.68705           1
	    4     0.10141      25.26446           1
	    5     0.10004      26.61199           1
	    6     0.10000      26.65086           1
	------------------------------------------------
	Norm of target step-size    0.10000
	Projected energy change by RFO approximation:        -0.0024179744

	Back-transformation to cartesian coordinates...
	Could not converge backtransformation.
	Using first guess instead.

	--- Internal Coordinate Step in ANG or DEG, aJ/ANG or AJ/DEG ---
	 ---------------------------------------------------------------------------
	   Coordinate                Previous        Force       Change         New 
	   ----------                --------       ------       ------       ------
	    1 R(1,4)          =      1.078095     0.057095     0.009885     1.087981
	    2 R(2,4)          =      1.079299     0.042969     0.007540     1.086839
	    3 R(3,4)          =      1.075046     0.050337     0.010114     1.085161
	    4 R(4,7)          =      1.539196    -0.055209    -0.012010     1.527186
	    5 R(5,7)          =      1.077986     0.060918     0.010339     1.088324
	    6 R(6,7)          =      1.078047     0.055344     0.009477     1.087524
	    7 R(7,10)         =      1.546083    -0.034978    -0.011361     1.534722
	    8 R(8,10)         =      1.077950     0.056118     0.009607     1.087557
	    9 R(9,10)         =      1.077878     0.061465     0.010423     1.088301
	   10 R(10,14)        =      1.538389    -0.052228    -0.011369     1.527020
	   11 R(11,14)        =      1.078575     0.047105     0.008207     1.086782
	   12 R(12,14)        =      1.077941     0.058148     0.010043     1.087983
	   13 R(13,14)        =      1.075859     0.045986     0.009406     1.085265
	   14 B(1,4,2)        =    109.207284    -0.000187    -0.659546   108.547737
	   15 B(1,4,3)        =    109.196904    -0.000192    -0.724647   108.472257
	   16 B(1,4,7)        =    109.624170     0.000203     0.763575   110.387745
	   17 B(2,4,3)        =    109.009743    -0.000211    -0.637941   108.371802
	   18 B(2,4,7)        =    109.683148     0.000119     0.429834   110.112982
	   19 B(3,4,7)        =    110.099965     0.000261     0.780694   110.880659
	   20 B(4,7,5)        =    108.651287    -0.000150    -0.110722   108.540565
	   21 B(4,7,6)        =    108.727935    -0.000167     0.014685   108.742619
	   22 B(4,7,10)       =    112.341921     0.000694     1.149502   113.491422
	   23 B(5,7,6)        =    109.656626    -0.000049    -0.791247   108.865379
	   24 B(5,7,10)       =    108.799899    -0.000142    -0.100200   108.699699
	   25 B(6,7,10)       =    108.638238    -0.000195    -0.221802   108.416436
	   26 B(7,10,8)       =    108.629162    -0.000197    -0.228432   108.400730
	   27 B(7,10,9)       =    108.829718    -0.000143    -0.108649   108.721069
	   28 B(7,10,14)      =    112.353463     0.000694     1.147233   113.500697
	   29 B(8,10,9)       =    109.645429    -0.000049    -0.789894   108.855535
	   30 B(8,10,14)      =    108.665819    -0.000161     0.045557   108.711376
	   31 B(9,10,14)      =    108.691613    -0.000153    -0.125792   108.565821
	   32 B(10,14,11)     =    109.691637     0.000122     0.436324   110.127961
	   33 B(10,14,12)     =    109.675240     0.000193     0.728115   110.403354
	   34 B(10,14,13)     =    110.143721     0.000255     0.761833   110.905554
	   35 B(11,14,12)     =    109.208846    -0.000185    -0.655641   108.553204
	   36 B(11,14,13)     =    108.995025    -0.000210    -0.635776   108.359249
	   37 B(12,14,13)     =    109.105571    -0.000182    -0.683478   108.422093
	   38 D(1,4,7,5)      =   -179.717334     0.000029     0.384394  -179.332941
	   39 D(1,4,7,6)      =    -60.422209    -0.000027    -0.620164   -61.042373
	   40 D(1,4,7,10)     =     59.854818    -0.000008    -0.150944    59.703874
	   41 D(2,4,7,5)      =    -59.816717     0.000021     0.318064   -59.498654
[...]
  CGR           7          0          1   5.455E-06
  CGR           8          0          1   1.161E-06
  CGR           9          1          0   1.553E-07

    CGRSolver converged.

  ==> DFCorrGrad: Density-Fitted Correlated Gradients <==

    OpenMP threads:              1
    Integrals threads:           1
    Memory (MB):               715
    Schwarz Cutoff:          0E+00
    Fitting Condition:       1E-12

   => Auxiliary Basis Set <=

  Basis Set: (AUG-CC-PVTZ AUX)
    Blend: AUG-CC-PVTZ-JKFIT
    Number of shells: 260
    Number of basis function: 876
    Number of Cartesian functions: 1074
    Spherical Harmonics?: true
    Max angular momentum: 4

	-----------------------------------------------------------
	 ==================> DF-MP2 Energies <==================== 
	-----------------------------------------------------------
	 Reference Energy          =    -157.3522982814351963 [Eh]
	 Singles Energy            =      -0.0000000000000000 [Eh]
	 Same-Spin Energy          =      -0.1659614863875358 [Eh]
	 Opposite-Spin Energy      =      -0.6403042993972745 [Eh]
	 Correlation Energy        =      -0.8062657857848103 [Eh]
	 Total Energy              =    -158.1585640672199986 [Eh]
	-----------------------------------------------------------
	 ================> DF-SCS-MP2 Energies <================== 
	-----------------------------------------------------------
	 SCS Same-Spin Scale       =       0.3333333333333333 [-]
	 SCS Opposite-Spin Scale   =       1.2000000000000000 [-]
	 SCS Same-Spin Energy      =      -0.0553204954625119 [Eh]
	 SCS Opposite-Spin Energy  =      -0.7683651592767294 [Eh]
	 SCS Correlation Energy    =      -0.8236856547392414 [Eh]
	 SCS Total Energy          =    -158.1759839361744469 [Eh]
	-----------------------------------------------------------


  -Total Gradient:
     Atom            X                  Y                   Z
    ------   -----------------  -----------------  -----------------
       1       -0.000024865210    -0.000000142937     0.000015148008
       2        0.000006867612    -0.000012750178     0.000022681703
       3        0.000021882592    -0.000001394461    -0.000004806792
       4        0.001221195235     0.000409010108     0.003031778586
       5       -0.000017619557     0.000034286475    -0.000034554433
       6       -0.000023168168    -0.000034767529    -0.000000316995
       7       -0.001280863487    -0.000468363676    -0.005514351780
       8       -0.000040542281     0.000010051035     0.000003538389
       9        0.000013476349    -0.000035326343     0.000034655581
      10       -0.000765900171    -0.000346809466     0.005618211921
      11       -0.000005038265     0.000013826778    -0.000022981503
      12       -0.000020249308    -0.000017351829    -0.000012783623
      13        0.000015789946     0.000016108663     0.000002503545
      14        0.000899034713     0.000433623360    -0.003138722605


*** tstop() called on gpu-1-10.local at Wed Jun 14 15:31:36 2017
Module time:
	user time   =     466.50 seconds =       7.78 minutes
	system time =       3.16 seconds =       0.05 minutes
	total time  =        469 seconds =       7.82 minutes
Total time:
	user time   =    3920.15 seconds =      65.34 minutes
	system time =      28.20 seconds =       0.47 minutes
	total time  =       3951 seconds =      65.85 minutes

			-----------------------------------------
			 OPTKING 2.0: for geometry optimizations 
			  - R.A. King,  Bethel University        
			-----------------------------------------

	Previous internal coordinate definitions found.
	---Fragment 1 Geometry and Gradient---
	 H           0.7153875404        2.4150733533       -2.8334314309
	 H          -0.8295514276        4.7073458963       -0.9889573306
	 H           1.7546391452        3.0426966368        0.2600876984
	 C           0.0881441689        2.8694195372       -0.9258994634
	 H          -2.1974575710        1.3609567988        2.0229291918
	 H          -3.4696064537        0.9134120135       -0.9858942448
	 C          -1.7089889131        0.8713764071        0.0797747230
	 H          -1.7944300804       -3.0094462474        1.2520800693
	 H          -0.8304298820       -2.5665920673       -1.8698229049
	 C          -0.6440393207       -1.8083084508        0.0392090799
	 H           2.7154249556       -3.9564305051        0.8935670986
	 H           2.4200497469       -1.1666163794        2.6748974325
	 H           3.3319512698       -1.0172833867       -0.5172776015
	 C           2.1123684545       -1.9932187035        0.8146273715
	            -0.0000248652       -0.0000001429        0.0000151480
	             0.0000068676       -0.0000127502        0.0000226817
	             0.0000218826       -0.0000013945       -0.0000048068
	             0.0012211952        0.0004090101        0.0030317786
	            -0.0000176196        0.0000342865       -0.0000345544
	            -0.0000231682       -0.0000347675       -0.0000003170
	            -0.0012808635       -0.0004683637       -0.0055143518
	            -0.0000405423        0.0000100510        0.0000035384
	             0.0000134763       -0.0000353263        0.0000346556
	            -0.0007659002       -0.0003468095        0.0056182119
	            -0.0000050383        0.0000138268       -0.0000229815
	            -0.0000202493       -0.0000173518       -0.0000127836
	             0.0000157899        0.0000161087        0.0000025035
	             0.0008990347        0.0004336234       -0.0031387226

	---Fragment 1 Intrafragment Coordinates---
	 - Coordinate -           - BOHR/RAD -       - ANG/DEG -
	 R(1,4)           =         2.058772	       1.089455
	 R(2,4)           =         2.055265	       1.087599
	 R(3,4)           =         2.052753	       1.086270
	 R(4,7)           =         2.869363	       1.518402
	 R(5,7)           =         2.062557	       1.091458
	 R(6,7)           =         2.058444	       1.089282
	 R(7,10)          =         2.883830	       1.526057
	 R(8,10)          =         2.058443	       1.089281
	 R(9,10)          =         2.062556	       1.091458
	 R(10,14)         =         2.869364	       1.518402
	 R(11,14)         =         2.055264	       1.087599
	 R(12,14)         =         2.058772	       1.089455
	 R(13,14)         =         2.052755	       1.086271
	 B(1,4,2)         =         1.880694	     107.755818
	 B(1,4,3)         =         1.882415	     107.854454
	 B(1,4,7)         =         1.941086	     111.216063
	 B(2,4,3)         =         1.880454	     107.742050
	 B(2,4,7)         =         1.932424	     110.719764
	 B(3,4,7)         =         1.944161	     111.392196
	 B(4,7,5)         =         1.889398	     108.254559
	 B(4,7,6)         =         1.917745	     109.878684
	 B(4,7,10)        =         1.994155	     114.256655
	 B(5,7,6)         =         1.854931	     106.279733
	 B(5,7,10)        =         1.897868	     108.739818
	 B(6,7,10)        =         1.904502	     109.119919
	 B(7,10,8)        =         1.904499	     109.119727
	 B(7,10,9)        =         1.897862	     108.739462
	 B(7,10,14)       =         1.994156	     114.256702
	 B(8,10,9)        =         1.854934	     106.279903
	 B(8,10,14)       =         1.917745	     109.878707
	 B(9,10,14)       =         1.889404	     108.254878
	 B(10,14,11)      =         1.932433	     110.720273
	 B(10,14,12)      =         1.941076	     111.215461
	 B(10,14,13)      =         1.944162	     111.392296
	 B(11,14,12)      =         1.880696	     107.755950
	 B(11,14,13)      =         1.880449	     107.741765
	 B(12,14,13)      =         1.882418	     107.854600
	 D(1,4,7,5)       =         3.088958	     176.984270
	 D(1,4,7,6)       =        -1.175450	     -67.348310
	 D(1,4,7,10)      =         0.971682	      55.673302
	 D(2,4,7,5)       =        -1.103759	     -63.240735
	 D(2,4,7,6)       =         0.915018	      52.426685
	 D(2,4,7,10)      =         3.062150	     175.448297
	 D(3,4,7,5)       =         0.988434	      56.633088
	 D(3,4,7,6)       =         3.007211	     172.300508
	 D(3,4,7,10)      =        -1.128842	     -64.677880
	 D(4,7,10,8)      =         2.863400	     164.060720
	 D(4,7,10,9)      =        -1.403486	     -80.413833
	 D(4,7,10,14)     =         0.709110	      40.629017
	 D(5,7,10,8)      =         0.750807	      43.018051
	 D(5,7,10,9)      =         2.767106	     158.543498
	 D(5,7,10,14)     =        -1.403483	     -80.413652
	 D(6,7,10,8)      =        -1.265494	     -72.507491
	 D(6,7,10,9)      =         0.750805	      43.017955
	 D(6,7,10,14)     =         2.863401	     164.060805
	 D(7,10,14,11)    =         3.062169	     175.449351
	 D(7,10,14,12)    =         0.971699	      55.674246
	 D(7,10,14,13)    =        -1.128823	     -64.676779
	 D(8,10,14,11)    =         0.915040	      52.427940
	 D(8,10,14,12)    =        -1.175430	     -67.347165
	 D(8,10,14,13)    =         3.007234	     172.301810
	 D(9,10,14,11)    =        -1.103744	     -63.239874
	 D(9,10,14,12)    =         3.088971	     176.985022
	 D(9,10,14,13)    =         0.988450	      56.633996

	Current energy   :      -158.1585640672

	Energy change for the previous step:
		Projected    :         0.0000094672
		Actual       :         0.0000018771

	Performing BFGS update.
	Previous computed or guess Hessian on step 1.
	Steps to be used in Hessian update: 7 6
	Adding user-defined constraint: Fragment 1; Coordinate 49:
		Value =     0.709110; Fixed value    =     0.698130
		Force =    -0.007412; Force constant =     0.675000
	Removing off-diagonal coupling between coordinate 49 and others.
	Taking RFO optimization step.
	Going to follow RFO solution 1.
	Using RFO vector 1.
	Norm of target step-size    0.00394
	Projected energy change by RFO approximation:        -0.0000010903

	Back-transformation to cartesian coordinates...
	Successfully converged to displaced geometry.

	--- Internal Coordinate Step in ANG or DEG, aJ/ANG or AJ/DEG ---
	 ---------------------------------------------------------------------------
	   Coordinate                Previous        Force       Change         New 
	   ----------                --------       ------       ------       ------
	    1 R(1,4)          =      1.089455     0.000178     0.000032     1.089487
	    2 R(2,4)          =      1.087599     0.000125     0.000017     1.087617
	    3 R(3,4)          =      1.086270    -0.000123    -0.000008     1.086262
	    4 R(4,7)          =      1.518402     0.000264     0.000036     1.518437
	    5 R(5,7)          =      1.091458     0.000167     0.000008     1.091466
	    6 R(6,7)          =      1.089282    -0.000159    -0.000048     1.089234
	    7 R(7,10)         =      1.526057     0.000562     0.000074     1.526131
	    8 R(8,10)         =      1.089281    -0.000156    -0.000048     1.089233
	    9 R(9,10)         =      1.091458     0.000167     0.000007     1.091465
	   10 R(10,14)        =      1.518402     0.000259     0.000033     1.518435
	   11 R(11,14)        =      1.087599     0.000128     0.000016     1.087615
	   12 R(12,14)        =      1.089455     0.000177     0.000032     1.089487
	   13 R(13,14)        =      1.086271    -0.000127    -0.000007     1.086264
	   14 B(1,4,2)        =    107.755818    -0.000001    -0.000087   107.755730
	   15 B(1,4,3)        =    107.854454    -0.000000     0.001255   107.855709
	   16 B(1,4,7)        =    111.216063     0.000002     0.009877   111.225940
	   17 B(2,4,3)        =    107.742050     0.000000     0.004539   107.746589
	   18 B(2,4,7)        =    110.719764     0.000001    -0.000515   110.719249
	   19 B(3,4,7)        =    111.392196    -0.000001    -0.014734   111.377462
	   20 B(4,7,5)        =    108.254559    -0.000018     0.019346   108.273905
	   21 B(4,7,6)        =    109.878684     0.000015    -0.021491   109.857193
	   22 B(4,7,10)       =    114.256655     0.000005    -0.001757   114.254898
	   23 B(5,7,6)        =    106.279733     0.000001     0.010524   106.290256
	   24 B(5,7,10)       =    108.739818    -0.000003    -0.012165   108.727653
	   25 B(6,7,10)       =    109.119919    -0.000000     0.006653   109.126573
	   26 B(7,10,8)       =    109.119727    -0.000000     0.006894   109.126621
	   27 B(7,10,9)       =    108.739462    -0.000003    -0.011819   108.727643
	   28 B(7,10,14)      =    114.256702     0.000004    -0.001874   114.254828
	   29 B(8,10,9)       =    106.279903     0.000001     0.010426   106.290329
	   30 B(8,10,14)      =    109.878707     0.000015    -0.021616   109.857090
	   31 B(9,10,14)      =    108.254878    -0.000018     0.019100   108.273978
	   32 B(10,14,11)     =    110.720273     0.000001    -0.000836   110.719438
	   33 B(10,14,12)     =    111.215461     0.000002     0.010134   111.225595
	   34 B(10,14,13)     =    111.392296    -0.000001    -0.014718   111.377577
	   35 B(11,14,12)     =    107.755950    -0.000001    -0.000107   107.755843
	   36 B(11,14,13)     =    107.741765     0.000000     0.004754   107.746520
	   37 B(12,14,13)     =    107.854600    -0.000000     0.001110   107.855710
	   38 D(1,4,7,5)      =    176.984270    -0.000001    -0.048326   176.935943
	   39 D(1,4,7,6)      =    -67.348310    -0.000001    -0.036554   -67.384864
	   40 D(1,4,7,10)     =     55.673302     0.000002    -0.045677    55.627624
	   41 D(2,4,7,5)      =    -63.240735    -0.000001    -0.042279   -63.283014
	   42 D(2,4,7,6)      =     52.426685    -0.000001    -0.030507    52.396178
	   43 D(2,4,7,10)     =    175.448297     0.000002    -0.039631   175.408666
	   44 D(3,4,7,5)      =     56.633088    -0.000001    -0.046641    56.586447
	   45 D(3,4,7,6)      =    172.300508    -0.000001    -0.034868   172.265639
	   46 D(3,4,7,10)     =    -64.677880     0.000002    -0.043992   -64.721872
	   47 D(4,7,10,8)     =    164.060720    -0.000005    -0.040292   164.020429
	   48 D(4,7,10,9)     =    -80.413833    -0.000005    -0.030620   -80.444453
	   49 D(4,7,10,14)    =     40.629017    -0.000010    -0.015979    40.613037
	   50 D(5,7,10,8)     =     43.018051    -0.000000    -0.055073    42.962978
	   51 D(5,7,10,9)     =    158.543498    -0.000000    -0.045401   158.498097
	   52 D(5,7,10,14)    =    -80.413652    -0.000005    -0.030761   -80.444413
	   53 D(6,7,10,8)     =    -72.507491    -0.000000    -0.064541   -72.572032
	   54 D(6,7,10,9)     =     43.017955    -0.000000    -0.054869    42.963086
	   55 D(6,7,10,14)    =    164.060805    -0.000005    -0.040229   164.020576
	   56 D(7,10,14,11)   =    175.449351     0.000002    -0.038965   175.410386
	   57 D(7,10,14,12)   =     55.674246     0.000002    -0.044943    55.629303
	   58 D(7,10,14,13)   =    -64.676779     0.000002    -0.043259   -64.720038
	   59 D(8,10,14,11)   =     52.427940    -0.000001    -0.029976    52.397964
	   60 D(8,10,14,12)   =    -67.347165    -0.000001    -0.035954   -67.383119
	   61 D(8,10,14,13)   =    172.301810    -0.000001    -0.034270   172.267540
	   62 D(9,10,14,11)   =    -63.239874    -0.000001    -0.041427   -63.281300
	   63 D(9,10,14,12)   =    176.985022    -0.000001    -0.047405   176.937617
	   64 D(9,10,14,13)   =     56.633996    -0.000001    -0.045721    56.588276
	 ---------------------------------------------------------------------------
	Successfully symmetrized geometry.
	 Forces used to impose fixed constraints are not included.
	  Forces zeroed: 49 

  ==> Convergence Check <==

  Measures of convergence in internal coordinates in au.
  Criteria marked as inactive (o), active & met (*), and active & unmet ( ).
  ---------------------------------------------------------------------------------------------
   Step     Total Energy     Delta E     MAX Force     RMS Force      MAX Disp      RMS Disp   
  ---------------------------------------------------------------------------------------------
    Convergence Criteria    1.00e-06 *    3.00e-04 *             o    1.20e-03 *             o
  ---------------------------------------------------------------------------------------------
      8    -158.15856407    1.88e-06      2.93e-04 *    1.04e-04 o    1.13e-03 *    4.93e-04 o  ~
  ---------------------------------------------------------------------------------------------


  **** Optimization is complete! (in 8 steps) ****

  ==> Optimization Summary <==

  Measures of convergence in internal coordinates in au.
  --------------------------------------------------------------------------------------------------------------- ~
   Step         Total Energy             Delta E       MAX Force       RMS Force        MAX Disp        RMS Disp  ~
  --------------------------------------------------------------------------------------------------------------- ~
      1    -158.151120538594   -158.151120538594      0.03382402      0.00885308      0.04972489      0.01263436  ~
      2    -158.155806312610     -0.004685774016      0.00911934      0.00373136      0.02518513      0.01252648  ~
      3    -158.157652819656     -0.001846507046      0.00386431      0.00133215      0.03782751      0.01249308  ~
      4    -158.158247585667     -0.000594766010      0.00129524      0.00049915      0.02980839      0.01249445  ~
      5    -158.158444280340     -0.000196694673      0.00040292      0.00017892      0.02598527      0.01249992  ~
      6    -158.158517373897     -0.000073093557      0.00030298      0.00011803      0.02494705      0.01249886  ~
      7    -158.158565944307     -0.000048570410      0.00071532      0.00015940      0.00824912      0.00409783  ~
      8    -158.158564067220      0.000001877087      0.00058309      0.00012670      0.00112646      0.00049262  ~
  --------------------------------------------------------------------------------------------------------------- ~

	Writing optimization data to binary file.
	Final energy is   -158.1585640672200
	Final (previous) structure:
	Cartesian Geometry (in Angstrom)
	    H     0.3785667817   1.2780017756  -1.4993873353
	    H    -0.4389797088   2.4910201613  -0.5233336796
	    H     0.9285150449   1.6101257128   0.1376324822
	    C     0.0466438853   1.5184314209  -0.4899648935
	    H    -1.1628444634   0.7201873198   1.0704880229
	    H    -1.8360366581   0.4833568196  -0.5217127644
	    C    -0.9043579825   0.4611125348   0.0422149652
	    H    -0.9495715010  -1.5925303646   0.6625722360
	    H    -0.4394445669  -1.3581820258  -0.9894676654
	    C    -0.3408109299  -0.9569156182   0.0207485515
	    H     1.4369409981  -2.0936528507   0.4728553429
	    H     1.2806351697  -0.6173467991   1.4154947566
	    H     1.7631926721  -0.5383231829  -0.2737315172
	    C     1.1178172423  -1.0547659096   0.4310822385
	Saving final (previous) structure.
			--------------------------
			 OPTKING Finished Execution 
			--------------------------

    Final optimized geometry and variables:
    Molecular point group: c1
    Full point group: C1

    Geometry (in Angstrom), charge = 0, multiplicity = 1:

    H            0.378566781697     1.278001775648    -1.499387335338
    H           -0.438979708828     2.491020161267    -0.523333679596
    H            0.928515044923     1.610125712839     0.137632482221
    C            0.046643885275     1.518431420948    -0.489964893455
    H           -1.162844463396     0.720187319812     1.070488022871
    H           -1.836036658059     0.483356819601    -0.521712764413
    C           -0.904357982532     0.461112534759     0.042214965224
    H           -0.949571500967    -1.592530364625     0.662572235983
    H           -0.439444566909    -1.358182025758    -0.989467665378
    C           -0.340810929948    -0.956915618241     0.020748551464
    H            1.436940998149    -2.093652850656     0.472855342950
    H            1.280635169723    -0.617346799147     1.415494756581
    H            1.763192672132    -0.538323182910    -0.273731517218
    C            1.117817242287    -1.054765909630     0.431082238483

	Cleaning optimization helper files.

*** Psi4 exiting successfully. Buy a developer a beer!
