
    -----------------------------------------------------------------------
          Psi4: An Open-Source Ab Initio Electronic Structure Package
                               Psi4 1.1 release

                         Git: Rev {HEAD} add49b9 


    R. M. Parrish, L. A. Burns, D. G. A. Smith, A. C. Simmonett,
    A. E. DePrince III, E. G. Hohenstein, U. Bozkaya, A. Yu. Sokolov,
    R. Di Remigio, R. M. Richard, J. F. Gonthier, A. M. James,
    H. R. McAlexander, A. Kumar, M. Saitow, X. Wang, B. P. Pritchard,
    P. Verma, H. F. Schaefer III, K. Patkowski, R. A. King, E. F. Valeev,
    F. A. Evangelista, J. M. Turney, T. D. Crawford, and C. D. Sherrill,
    J. Chem. Theory Comput. in press (2017).
    (doi: 10.1021/acs.jctc.7b00174)

    -----------------------------------------------------------------------


    Psi4 started on: Wednesday, 14 June 2017 02:32PM

    Process ID:  17040
    PSIDATADIR: /cbio/jclab/home/chayas/anaconda/envs/py35/share/psi4
    Memory:     500.0 MiB
    Threads:    1
    
  ==> Input File <==

--------------------------------------------------------------------------

memory 1000 mb

molecule butane {
  symmetry C1
  0 1 
  H      1.604   0.760   -8.260
  H      1.745   2.388   -8.880
  H      2.043   1.024   -9.930
  C      2.142   1.395   -8.932
  H      4.169   2.051   -9.210
  H      3.731   1.788   -7.539
  C      3.631   1.416   -8.537
  H      3.665   -0.647   -7.940
  H      4.104   -0.384   -9.610
  C      4.203   -0.012   -8.612
  H      6.074   1.003   -8.322
  H      6.239   -0.652   -8.856
  H      5.796   -0.309   -7.202
  C      5.691   0.009   -8.218
  units Angstrom
}

dih_string = "7 10 14 13 100"
set optking fixed_dihedral = $dih_string

optimize('MP2/aug-cc-pvtz')
--------------------------------------------------------------------------

  Memory set to 953.674 MiB by Python driver.
gradient() will perform analytic gradient computation.

*** tstart() called on gpu-1-10.local
*** at Wed Jun 14 14:32:08 2017

    SCF Algorithm Type (re)set to DF.

*** tstart() called on gpu-1-10.local
*** at Wed Jun 14 14:32:08 2017

   => Loading Basis Set <=

    Name: AUG-CC-PVTZ
    Role: ORBITAL
    Keyword: BASIS
    atoms 1-3, 5-6, 8-9, 11-13 entry H          line    34 file /cbio/jclab/home/chayas/anaconda/envs/py35/share/psi4/basis/aug-cc-pvtz.gbs 
    atoms 4, 7, 10, 14         entry C          line   221 file /cbio/jclab/home/chayas/anaconda/envs/py35/share/psi4/basis/aug-cc-pvtz.gbs 


         ---------------------------------------------------------
                                   SCF
            by Justin Turney, Rob Parrish, and Andy Simmonett
                              RHF Reference
                        1 Threads,    953 MiB Core
         ---------------------------------------------------------

  ==> Geometry <==

    Molecular point group: c1
    Full point group: C1

    Geometry (in Angstrom), charge = 0, multiplicity = 1:

       Center              X                  Y                   Z               Mass       
    ------------   -----------------  -----------------  -----------------  -----------------
           H         -2.312793382205     0.057965294236     0.314776029323     1.007825032070
           H         -2.171793382205     1.685965294236    -0.305223970677     1.007825032070
           H         -1.873793382205     0.321965294236    -1.355223970677     1.007825032070
           C         -1.774793382205     0.692965294236    -0.357223970677    12.000000000000
           H          0.252206617795     1.348965294236    -0.635223970677     1.007825032070
           H         -0.185793382205     1.085965294236     1.035776029323     1.007825032070
           C         -0.285793382205     0.713965294236     0.037776029323    12.000000000000
           H         -0.251793382205    -1.349034705764     0.634776029323     1.007825032070
           H          0.187206617795    -1.086034705764    -1.035223970677     1.007825032070
           C          0.286206617795    -0.714034705764    -0.037223970677    12.000000000000
           H          2.157206617795     0.300965294236     0.252776029323     1.007825032070
           H          2.322206617795    -1.354034705764    -0.281223970677     1.007825032070
           H          1.879206617795    -1.011034705764     1.372776029323     1.007825032070
           C          1.774206617795    -0.693034705764     0.356776029323    12.000000000000

  Running in c1 symmetry.

  Rotational constants: A =      0.76951  B =      0.12464  C =      0.11638 [cm^-1]
  Rotational constants: A =  23069.35502  B =   3736.70437  C =   3488.91679 [MHz]
  Nuclear repulsion =  131.843106227619842

  Charge       = 0
  Multiplicity = 1
  Electrons    = 34
  Nalpha       = 17
  Nbeta        = 17

  ==> Algorithm <==

  SCF Algorithm Type is DF.
  DIIS enabled.
  MOM disabled.
  Fractional occupation disabled.
  Guess Type is SAD.
  Energy threshold   = 1.00e-10
  Density threshold  = 1.00e-10
  Integral threshold = 0.00e+00

  ==> Primary Basis <==

  Basis Set: AUG-CC-PVTZ
    Blend: AUG-CC-PVTZ
    Number of shells: 146
    Number of basis function: 414
    Number of Cartesian functions: 470
    Spherical Harmonics?: true
    Max angular momentum: 3

   => Loading Basis Set <=

    Name: (AUG-CC-PVTZ AUX)
    Role: JKFIT
    Keyword: DF_BASIS_SCF
    atoms 1-3, 5-6, 8-9, 11-13 entry H          line    69 file /cbio/jclab/home/chayas/anaconda/envs/py35/share/psi4/basis/aug-cc-pvtz-jkfit.gbs 
    atoms 4, 7, 10, 14         entry C          line   161 file /cbio/jclab/home/chayas/anaconda/envs/py35/share/psi4/basis/aug-cc-pvtz-jkfit.gbs 

  ==> Pre-Iterations <==

   -------------------------------------------------------
    Irrep   Nso     Nmo     Nalpha   Nbeta   Ndocc  Nsocc
   -------------------------------------------------------
     A        414     414       0       0       0       0
   -------------------------------------------------------
    Total     414     414      17      17      17       0
   -------------------------------------------------------

  ==> Integral Setup <==

  ==> DFJK: Density-Fitted J/K Matrices <==

    J tasked:                  Yes
    K tasked:                  Yes
    wK tasked:                  No
    OpenMP threads:              1
    Integrals threads:           1
    Memory (MB):               715
    Algorithm:                Core
    Integral Cache:           NONE
    Schwarz Cutoff:          1E-12
    Fitting Condition:       1E-12

   => Auxiliary Basis Set <=

  Basis Set: (AUG-CC-PVTZ AUX)
    Blend: AUG-CC-PVTZ-JKFIT
    Number of shells: 260
    Number of basis function: 876
    Number of Cartesian functions: 1074
    Spherical Harmonics?: true
    Max angular momentum: 4

  Minimum eigenvalue in the overlap matrix is 8.5072277146E-06.
  Using Symmetric Orthogonalization.

  SCF Guess: Superposition of Atomic Densities via on-the-fly atomic UHF.

  ==> Iterations <==

                           Total Energy        Delta E     RMS |[F,P]|

   @DF-RHF iter   0:  -158.77950783496280   -1.58780e+02   9.13673e-03 
   @DF-RHF iter   1:  -157.21013749438171    1.56937e+00   1.11598e-03 
   @DF-RHF iter   2:  -157.32778515091942   -1.17648e-01   4.31163e-04 DIIS
   @DF-RHF iter   3:  -157.34608025588520   -1.82951e-02   1.24539e-04 DIIS
   @DF-RHF iter   4:  -157.34851333098479   -2.43308e-03   2.18155e-05 DIIS
   @DF-RHF iter   5:  -157.34859249372028   -7.91627e-05   7.15128e-06 DIIS
   @DF-RHF iter   6:  -157.34860027427376   -7.78055e-06   1.36483e-06 DIIS
   @DF-RHF iter   7:  -157.34860066567009   -3.91396e-07   2.23136e-07 DIIS
   @DF-RHF iter   8:  -157.34860067755113   -1.18810e-08   3.86572e-08 DIIS
   @DF-RHF iter   9:  -157.34860067787159   -3.20455e-10   9.51953e-09 DIIS
   @DF-RHF iter  10:  -157.34860067789333   -2.17426e-11   2.44100e-09 DIIS
   @DF-RHF iter  11:  -157.34860067789299    3.41061e-13   7.09176e-10 DIIS
   @DF-RHF iter  12:  -157.34860067789376   -7.67386e-13   1.43451e-10 DIIS
   @DF-RHF iter  13:  -157.34860067789373    2.84217e-14   2.97571e-11 DIIS

  ==> Post-Iterations <==

    Orbital Energies (a.u.)
    -----------------------

    Doubly Occupied:                                                      

       1A    -11.207398     2A    -11.205549     3A    -11.198402  
       4A    -11.197257     5A     -1.070725     6A     -0.980958  
       7A     -0.861235     8A     -0.795449     9A     -0.646627  
      10A     -0.587343    11A     -0.577101    12A     -0.571502  
      13A     -0.512216    14A     -0.504510    15A     -0.472736  
      16A     -0.469086    17A     -0.440696  

    Virtual:                                                              

      18A      0.032332    19A      0.037673    20A      0.039410  
      21A      0.040379    22A      0.058171    23A      0.058849  
      24A      0.060263    25A      0.060930    26A      0.077983  
      27A      0.083074    28A      0.102288    29A      0.112751  
      30A      0.122653    31A      0.130489    32A      0.138486  
      33A      0.142136    34A      0.142312    35A      0.145318  
      36A      0.148342    37A      0.160819    38A      0.165960  
      39A      0.166292    40A      0.172398    41A      0.200085  
      42A      0.202057    43A      0.215303    44A      0.226699  
      45A      0.242167    46A      0.250419    47A      0.254786  
      48A      0.267303    49A      0.279811    50A      0.283313  
      51A      0.289014    52A      0.311490    53A      0.318797  
      54A      0.331520    55A      0.339194    56A      0.346555  
      57A      0.357752    58A      0.358501    59A      0.359108  
      60A      0.367662    61A      0.369058    62A      0.371497  
      63A      0.382505    64A      0.387489    65A      0.390309  
      66A      0.391413    67A      0.397411    68A      0.400373  
      69A      0.405409    70A      0.410222    71A      0.416627  
      72A      0.430942    73A      0.443641    74A      0.446594  
      75A      0.448827    76A      0.462632    77A      0.462781  
      78A      0.465200    79A      0.470982    80A      0.486410  
      81A      0.490319    82A      0.500413    83A      0.503148  
      84A      0.508955    85A      0.517294    86A      0.518546  
      87A      0.523988    88A      0.529879    89A      0.540903  
      90A      0.543695    91A      0.547974    92A      0.556218  
      93A      0.567483    94A      0.574766    95A      0.580360  
      96A      0.588917    97A      0.599531    98A      0.612837  
      99A      0.614213   100A      0.634416   101A      0.641732  
     102A      0.655809   103A      0.678392   104A      0.680522  
     105A      0.696996   106A      0.722329   107A      0.757597  
     108A      0.773657   109A      0.798283   110A      0.811739  
     111A      0.821607   112A      0.828385   113A      0.835639  
     114A      0.842285   115A      0.847604   116A      0.861589  
     117A      0.865374   118A      0.879787   119A      0.880500  
     120A      0.888812   121A      0.895167   122A      0.901998  
     123A      0.916822   124A      0.921653   125A      0.923958  
     126A      0.928946   127A      0.933479   128A      0.937889  
     129A      0.947541   130A      0.957915   131A      0.964365  
     132A      0.976136   133A      0.981981   134A      0.991783  
     135A      0.997197   136A      1.016231   137A      1.029739  
     138A      1.033526   139A      1.045897   140A      1.071779  
     141A      1.078510   142A      1.080400   143A      1.089885  
     144A      1.096022   145A      1.104105   146A      1.111441  
     147A      1.120576   148A      1.137339   149A      1.152454  
     150A      1.156115   151A      1.162185   152A      1.172717  
     153A      1.180741   154A      1.198135   155A      1.213480  
     156A      1.219610   157A      1.229135   158A      1.242833  
     159A      1.245049   160A      1.248886   161A      1.260929  
     162A      1.270035   163A      1.275033   164A      1.288233  
     165A      1.296186   166A      1.309615   167A      1.313962  
     168A      1.323651   169A      1.339644   170A      1.357246  
     171A      1.370157   172A      1.392159   173A      1.414309  
     174A      1.418917   175A      1.433776   176A      1.442527  
     177A      1.458240   178A      1.479816   179A      1.491774  
     180A      1.504527   181A      1.522615   182A      1.527870  
     183A      1.542676   184A      1.556452   185A      1.570068  
     186A      1.584908   187A      1.603998   188A      1.608266  
     189A      1.630873   190A      1.643907   191A      1.650780  
     192A      1.667856   193A      1.683425   194A      1.689651  
     195A      1.700152   196A      1.702224   197A      1.712966  
     198A      1.717457   199A      1.729111   200A      1.735504  
     201A      1.739928   202A      1.756448   203A      1.761964  
     204A      1.767791   205A      1.776770   206A      1.780661  
     207A      1.788030   208A      1.810837   209A      1.822297  
     210A      1.849718   211A      1.860902   212A      1.884099  
     213A      1.898818   214A      1.912042   215A      1.924697  
     216A      1.941246   217A      1.967717   218A      1.969756  
     219A      1.992647   220A      2.001919   221A      2.007541  
     222A      2.025069   223A      2.031130   224A      2.038319  
     225A      2.056652   226A      2.060938   227A      2.081190  
     228A      2.089739   229A      2.101927   230A      2.161912  
     231A      2.174929   232A      2.187342   233A      2.196721  
     234A      2.211821   235A      2.238549   236A      2.261476  
     237A      2.270222   238A      2.286070   239A      2.303818  
     240A      2.310777   241A      2.329005   242A      2.338969  
     243A      2.348854   244A      2.360316   245A      2.372420  
     246A      2.386414   247A      2.415152   248A      2.446025  
     249A      2.461279   250A      2.472948   251A      2.505606  
     252A      2.542002   253A      2.594058   254A      2.611649  
     255A      2.621101   256A      2.670740   257A      2.784253  
     258A      2.881551   259A      2.961555   260A      3.025946  
     261A      3.204263   262A      3.249540   263A      3.297365  
     264A      3.360868   265A      3.395919   266A      3.425494  
     267A      3.440155   268A      3.461467   269A      3.473559  
     270A      3.487247   271A      3.523941   272A      3.560170  
     273A      3.569092   274A      3.580846   275A      3.594085  
     276A      3.603387   277A      3.623492   278A      3.669247  
     279A      3.682138   280A      3.691240   281A      3.700141  
     282A      3.714060   283A      3.728039   284A      3.743140  
     285A      3.751653   286A      3.779226   287A      3.788057  
     288A      3.796387   289A      3.829000   290A      3.838283  
     291A      3.847359   292A      3.869394   293A      3.881613  
     294A      3.890443   295A      3.914609   296A      3.920436  
     297A      3.962271   298A      3.976097   299A      3.984669  
     300A      3.987594   301A      4.010879   302A      4.014445  
     303A      4.030124   304A      4.037738   305A      4.052081  
     306A      4.065183   307A      4.083966   308A      4.093836  
     309A      4.152483   310A      4.174456   311A      4.187894  
     312A      4.197118   313A      4.237555   314A      4.245173  
     315A      4.251779   316A      4.272851   317A      4.286203  
     318A      4.300130   319A      4.321241   320A      4.331663  
     321A      4.347730   322A      4.377577   323A      4.383635  
     324A      4.422599   325A      4.454484   326A      4.472073  
     327A      4.523615   328A      4.540249   329A      4.565149  
     330A      4.584607   331A      4.610357   332A      4.658931  
     333A      4.668727   334A      4.684076   335A      4.716201  
     336A      4.720565   337A      4.744497   338A      4.754560  
     339A      4.771523   340A      4.795281   341A      4.813735  
     342A      4.871197   343A      4.872336   344A      4.886858  
     345A      4.900463   346A      4.942821   347A      4.951444  
     348A      4.964101   349A      4.990538   350A      5.005802  
     351A      5.038898   352A      5.058058   353A      5.072416  
     354A      5.113142   355A      5.139147   356A      5.152355  
     357A      5.185849   358A      5.191769   359A      5.222897  
     360A      5.250788   361A      5.255875   362A      5.275795  
     363A      5.305639   364A      5.311080   365A      5.327314  
     366A      5.350658   367A      5.373302   368A      5.396859  
     369A      5.439749   370A      5.459554   371A      5.464702  
     372A      5.471859   373A      5.503415   374A      5.529332  
     375A      5.577106   376A      5.595756   377A      5.606023  
     378A      5.656397   379A      5.663227   380A      5.688186  
     381A      5.704728   382A      5.747782   383A      5.762396  
     384A      5.802600   385A      5.814423   386A      5.856028  
     387A      5.895943   388A      5.937777   389A      5.976677  
     390A      6.025573   391A      6.109659   392A      6.145060  
     393A      6.168876   394A      6.204933   395A      6.229256  
     396A      6.257171   397A      6.271946   398A      6.335224  
     399A      6.343940   400A      6.372188   401A      6.393668  
     402A      6.487617   403A      6.561014   404A      6.622817  
     405A      6.748102   406A      6.781938   407A      6.830919  
     408A      6.853274   409A      6.869922   410A      6.981707  
     411A     18.157420   412A     18.241311   413A     18.893839  
     414A     19.613257  

    Final Occupation by Irrep:
              A 
    DOCC [    17 ]

  Energy converged.

  @DF-RHF Final Energy:  -157.34860067789373

   => Energetics <=

    Nuclear Repulsion Energy =            131.8431062276198418
    One-Electron Energy =                -471.7858329796367229
    Two-Electron Energy =                 182.5941260741231531
    DFT Exchange-Correlation Energy =       0.0000000000000000
    Empirical Dispersion Energy =           0.0000000000000000
    PCM Polarization Energy =               0.0000000000000000
    EFP Energy =                            0.0000000000000000
    Total Energy =                       -157.3486006778937281



Properties will be evaluated at   0.000000,   0.000000,   0.000000 Bohr

Properties computed using the SCF density matrix

  Nuclear Dipole Moment: (a.u.)
     X:     0.0019      Y:     0.0015      Z:    -0.0012

  Electronic Dipole Moment: (a.u.)
     X:    -0.0025      Y:    -0.0028      Z:     0.0023

  Dipole Moment: (a.u.)
     X:    -0.0005      Y:    -0.0012      Z:     0.0011     Total:     0.0017

  Dipole Moment: (Debye)
     X:    -0.0014      Y:    -0.0031      Z:     0.0028     Total:     0.0044


*** tstop() called on gpu-1-10.local at Wed Jun 14 14:33:13 2017
Module time:
	user time   =      64.39 seconds =       1.07 minutes
	system time =       0.54 seconds =       0.01 minutes
	total time  =         65 seconds =       1.08 minutes
Total time:
	user time   =      64.40 seconds =       1.07 minutes
	system time =       0.54 seconds =       0.01 minutes
	total time  =         65 seconds =       1.08 minutes

  //>>>>>>>>>>>>>>>>>>>>>>>>>>>>>>>>>>>//
  //               DFMP2               //
  //<<<<<<<<<<<<<<<<<<<<<<<<<<<<<<<<<<<//

   => Loading Basis Set <=

    Name: (AUG-CC-PVTZ AUX)
    Role: RIFIT
    Keyword: DF_BASIS_MP2
    atoms 1-3, 5-6, 8-9, 11-13 entry H          line    29 file /cbio/jclab/home/chayas/anaconda/envs/py35/share/psi4/basis/aug-cc-pvtz-ri.gbs 
    atoms 4, 7, 10, 14         entry C          line   147 file /cbio/jclab/home/chayas/anaconda/envs/py35/share/psi4/basis/aug-cc-pvtz-ri.gbs 

	 --------------------------------------------------------
	                          DF-MP2                         
	      2nd-Order Density-Fitted Moller-Plesset Theory     
	              RMP2 Wavefunction,   1 Threads             
	                                                         
	        Rob Parrish, Justin Turney, Andy Simmonett,      
	           Ed Hohenstein, and C. David Sherrill          
	 --------------------------------------------------------

   => Auxiliary Basis Set <=

  Basis Set: (AUG-CC-PVTZ AUX)
    Blend: AUG-CC-PVTZ-RI
    Number of shells: 252
    Number of basis function: 884
    Number of Cartesian functions: 1094
    Spherical Harmonics?: true
    Max angular momentum: 4

	 --------------------------------------------------------
	                 NBF =   414, NAUX =   884
	 --------------------------------------------------------
	   CLASS    FOCC     OCC    AOCC    AVIR     VIR    FVIR
	   PAIRS       0      17      17     397     397       0
	 --------------------------------------------------------


         ------------------------------------------------------------
                                     CPHF                           
                                  Rob Parrish                       
         ------------------------------------------------------------

  ==> Geometry <==

    Molecular point group: c1
    Full point group: C1

    Geometry (in Angstrom), charge = 0, multiplicity = 1:

       Center              X                  Y                   Z               Mass       
    ------------   -----------------  -----------------  -----------------  -----------------
           H         -2.312793382205     0.057965294236     0.314776029323     1.007825032070
           H         -2.171793382205     1.685965294236    -0.305223970677     1.007825032070
           H         -1.873793382205     0.321965294236    -1.355223970677     1.007825032070
           C         -1.774793382205     0.692965294236    -0.357223970677    12.000000000000
           H          0.252206617795     1.348965294236    -0.635223970677     1.007825032070
           H         -0.185793382205     1.085965294236     1.035776029323     1.007825032070
           C         -0.285793382205     0.713965294236     0.037776029323    12.000000000000
           H         -0.251793382205    -1.349034705764     0.634776029323     1.007825032070
           H          0.187206617795    -1.086034705764    -1.035223970677     1.007825032070
           C          0.286206617795    -0.714034705764    -0.037223970677    12.000000000000
           H          2.157206617795     0.300965294236     0.252776029323     1.007825032070
           H          2.322206617795    -1.354034705764    -0.281223970677     1.007825032070
           H          1.879206617795    -1.011034705764     1.372776029323     1.007825032070
           C          1.774206617795    -0.693034705764     0.356776029323    12.000000000000

  Nuclear repulsion =  131.843106227619842
  Reference energy  = -157.348600677893728

  ==> Basis Set <==

  Basis Set: AUG-CC-PVTZ
    Blend: AUG-CC-PVTZ
    Number of shells: 146
    Number of basis function: 414
    Number of Cartesian functions: 470
    Spherical Harmonics?: true
    Max angular momentum: 3

  ==> CGRSolver (by Rob Parrish) <==

   Number of roots    =         1
   Preconditioning    =    JACOBI
   Convergence cutoff =     1E-06
   Maximum iterations =       100

  ==> CPHFRHamiltonian (by Rob Parrish) <== 

  ==> DFJK: Density-Fitted J/K Matrices <==

    J tasked:                  Yes
    K tasked:                  Yes
    wK tasked:                  No
    OpenMP threads:              1
    Integrals threads:           1
    Memory (MB):               715
    Algorithm:                Core
    Integral Cache:           NONE
    Schwarz Cutoff:          1E-12
    Fitting Condition:       1E-12

   => Auxiliary Basis Set <=

  Basis Set: (AUG-CC-PVTZ AUX)
    Blend: AUG-CC-PVTZ-JKFIT
    Number of shells: 260
    Number of basis function: 876
    Number of Cartesian functions: 1074
    Spherical Harmonics?: true
    Max angular momentum: 4

  ==> CPHF Iterations <==

  => Iterations <=

             Iter  Converged  Remaining    Residual
  CGR           1          0          1   8.171E-02
  CGR           2          0          1   1.312E-02
  CGR           3          0          1   3.418E-03
  CGR           4          0          1   8.061E-04
  CGR           5          0          1   1.189E-04
  CGR           6          0          1   2.168E-05
  CGR           7          0          1   4.099E-06
  CGR           8          0          1   1.073E-06
  CGR           9          1          0   2.719E-07

    CGRSolver converged.

  ==> DFCorrGrad: Density-Fitted Correlated Gradients <==

    OpenMP threads:              1
    Integrals threads:           1
    Memory (MB):               715
    Schwarz Cutoff:          0E+00
    Fitting Condition:       1E-12

   => Auxiliary Basis Set <=

  Basis Set: (AUG-CC-PVTZ AUX)
    Blend: AUG-CC-PVTZ-JKFIT
    Number of shells: 260
    Number of basis function: 876
    Number of Cartesian functions: 1074
    Spherical Harmonics?: true
    Max angular momentum: 4

	-----------------------------------------------------------
	 ==================> DF-MP2 Energies <==================== 
	-----------------------------------------------------------
	 Reference Energy          =    -157.3486006778937281 [Eh]
	 Singles Energy            =      -0.0000000000000000 [Eh]
	 Same-Spin Energy          =      -0.1654615391283903 [Eh]
	 Opposite-Spin Energy      =      -0.6393233578276447 [Eh]
	 Correlation Energy        =      -0.8047848969560351 [Eh]
	 Total Energy              =    -158.1533855748497501 [Eh]
	-----------------------------------------------------------
	 ================> DF-SCS-MP2 Energies <================== 
	-----------------------------------------------------------
	 SCS Same-Spin Scale       =       0.3333333333333333 [-]
	 SCS Opposite-Spin Scale   =       1.2000000000000000 [-]
	 SCS Same-Spin Energy      =      -0.0551538463761301 [Eh]
	 SCS Opposite-Spin Energy  =      -0.7671880293931737 [Eh]
	 SCS Correlation Energy    =      -0.8223418757693037 [Eh]
	 SCS Total Energy          =    -158.1709425536630249 [Eh]
	-----------------------------------------------------------


  -Total Gradient:
     Atom            X                  Y                   Z
    ------   -----------------  -----------------  -----------------
       1        0.007937191939     0.006752030796    -0.006321925076
       2        0.008205218210    -0.009425309517     0.000623135982
       3        0.003166494309     0.004233100857     0.011242310504
       4       -0.025073717708    -0.007251662252    -0.008369811401
       5       -0.007900050168    -0.007640359846     0.006105166279
       6       -0.003461639346    -0.005733032384    -0.011675880077
       7        0.024254594382     0.031375130049     0.010654406404
       8        0.008708478027     0.008419941739    -0.004826337038
       9        0.004559306892     0.004438288642     0.011306539277
      10       -0.017826691166    -0.030574545584    -0.008497235307
      11       -0.007124048962    -0.009175662045     0.000928659764
      12       -0.010188751632     0.006930492810     0.003712933742
      13       -0.005276337403     0.001721852933    -0.010862822476
      14        0.020019952625     0.005929733806     0.005980859422


*** tstop() called on gpu-1-10.local at Wed Jun 14 14:37:06 2017
Module time:
	user time   =     294.91 seconds =       4.92 minutes
	system time =       3.12 seconds =       0.05 minutes
	total time  =        298 seconds =       4.97 minutes
Total time:
	user time   =     294.92 seconds =       4.92 minutes
	system time =       3.12 seconds =       0.05 minutes
	total time  =        298 seconds =       4.97 minutes

			-----------------------------------------
			 OPTKING 2.0: for geometry optimizations 
			  - R.A. King,  Bethel University        
			-----------------------------------------

	Internal coordinates to be generated automatically.
	Detected frag 1 with atoms:  1 2 3 4 5 6 7 8 9 10 11 12 13 14
	---Fragment 1 Bond Connectivity---
	 1 : 4
	 2 : 4
	 3 : 4
	 4 : 1 2 3 7
	 5 : 7
	 6 : 7
	 7 : 4 5 6 10
	 8 : 10
	 9 : 10
	 10 : 7 8 9 14
	 11 : 14
	 12 : 14
	 13 : 14
	 14 : 10 11 12 13

	Assuming in current code that numbering for constraints corresponds to unified fragment.
	Fixed dihedral atom list: 
	     7    10    14    13
	---Fragment 1 Geometry and Gradient---
	 H          -4.3705460943        0.1095385313        0.5948404886
	 H          -4.1040947096        3.1860126757       -0.5767897138
	 H          -3.5409563220        0.6084262304       -2.5610021533
	 C          -3.3538734348        1.3095146257       -0.6750554727
	 H           0.4766014365        2.5491749689       -1.2003993376
	 H          -0.3510986097        2.0521769959        1.9573330304
	 C          -0.5400712230        1.3491988745        0.0713863498
	 H          -0.4758205344       -2.5493061377        1.1995528511
	 H           0.3537692379       -2.0523081647       -1.9562897908
	 C           0.5408521251       -1.3493300433       -0.0703431102
	 H           4.0765297197        0.5687419816        0.4776774684
	 H           4.3883345316       -2.5587547683       -0.5314362866
	 H           3.5511858547       -1.9105787047        2.5941707372
	 C           3.3527646108       -1.3096457945        0.6742089862
	             0.0079371919        0.0067520308       -0.0063219251
	             0.0082052182       -0.0094253095        0.0006231360
	             0.0031664943        0.0042331009        0.0112423105
	            -0.0250737177       -0.0072516623       -0.0083698114
	            -0.0079000502       -0.0076403598        0.0061051663
	            -0.0034616393       -0.0057330324       -0.0116758801
	             0.0242545944        0.0313751300        0.0106544064
	             0.0087084780        0.0084199417       -0.0048263370
	             0.0045593069        0.0044382886        0.0113065393
	            -0.0178266912       -0.0305745456       -0.0084972353
	            -0.0071240490       -0.0091756620        0.0009286598
	            -0.0101887516        0.0069304928        0.0037129337
	            -0.0052763374        0.0017218529       -0.0108628225
	             0.0200199526        0.0059297338        0.0059808594

	Previous optimization step data not found.  Starting new optimization.

	---Fragment 1 Intrafragment Coordinates---
	 - Coordinate -           - BOHR/RAD -       - ANG/DEG -
	 R(1,4)           =         2.021436	       1.069698
	 R(2,4)           =         2.023298	       1.070683
	 R(3,4)           =         2.020723	       1.069320
	 R(4,7)           =         2.911397	       1.540645
	 R(5,7)           =         2.022623	       1.070326
	 R(6,7)           =         2.021555	       1.069761
	 R(7,10)          =         2.910419	       1.540128
	 R(8,10)          =         2.021436	       1.069698
	 R(9,10)          =         2.021379	       1.069668
	 R(10,14)         =         2.909087	       1.539422
	 R(11,14)         =         2.022573	       1.070299
	 R(12,14)         =         2.021450	       1.069705
	 R(13,14)         =         2.021570	       1.069769
	 B(1,4,2)         =         1.910870	     109.484805
	 B(1,4,3)         =         1.911121	     109.499161
	 B(1,4,7)         =         1.910399	     109.457783
	 B(2,4,3)         =         1.910042	     109.437340
	 B(2,4,7)         =         1.910564	     109.467262
	 B(3,4,7)         =         1.910803	     109.480971
	 B(4,7,5)         =         1.909937	     109.431343
	 B(4,7,6)         =         1.911630	     109.528316
	 B(4,7,10)        =         1.911154	     109.501062
	 B(5,7,6)         =         1.910605	     109.469614
	 B(5,7,10)        =         1.910047	     109.437654
	 B(6,7,10)        =         1.910425	     109.459295
	 B(7,10,8)        =         1.910303	     109.452301
	 B(7,10,9)        =         1.910824	     109.482155
	 B(7,10,14)       =         1.911213	     109.504437
	 B(8,10,9)        =         1.910417	     109.458846
	 B(8,10,14)       =         1.910766	     109.478806
	 B(9,10,14)       =         1.910276	     109.450772
	 B(10,14,11)      =         1.911012	     109.492899
	 B(10,14,12)      =         1.911446	     109.517790
	 B(10,14,13)      =         1.911228	     109.505325
	 B(11,14,12)      =         1.909858	     109.426802
	 B(11,14,13)      =         1.910525	     109.465031
	 B(12,14,13)      =         1.909729	     109.419415
	 D(1,4,7,5)       =         3.140997	     179.965873
	 D(1,4,7,6)       =        -1.047644	     -60.025575
	 D(1,4,7,10)      =         1.047427	      60.013132
	 D(2,4,7,5)       =        -1.047689	     -60.028143
	 D(2,4,7,6)       =         1.046856	      59.980409
	 D(2,4,7,10)      =        -3.141259	    -179.980883
	 D(3,4,7,5)       =         1.046044	      59.933911
	 D(3,4,7,6)       =         3.140588	     179.942463
	 D(3,4,7,10)      =        -1.047526	     -60.018830
	 D(4,7,10,8)      =        -1.047368	     -60.009777
	 D(4,7,10,9)      =         1.046677	      59.970178
	 D(4,7,10,14)     =         3.141107	     179.972182
	 D(5,7,10,8)      =        -3.140871	    -179.958653
	 D(5,7,10,9)      =        -1.046826	     -59.978698
	 D(5,7,10,14)     =         1.047604	      60.023306
	 D(6,7,10,8)      =         1.048439	      60.071149
	 D(6,7,10,9)      =        -3.140701	    -179.948896
	 D(6,7,10,14)     =        -1.046271	     -59.946893
	 D(7,10,14,11)    =        -0.349471	     -20.023196
	 D(7,10,14,12)    =        -2.443646	    -140.010605
	 D(7,10,14,13)    =         1.745389	     100.003415
	 D(8,10,14,11)    =        -2.443898	    -140.025018
	 D(8,10,14,12)    =         1.745112	      99.987573
	 D(8,10,14,13)    =        -0.349038	     -19.998407
	 D(9,10,14,11)    =         1.745295	      99.998011
	 D(9,10,14,12)    =        -0.348881	     -19.989397
	 D(9,10,14,13)    =        -2.443031	    -139.975377

	Current energy   :      -158.1533855748

	Generating empirical Hessian (Schlegel '84) for each fragment.
	Adding user-defined constraint: Fragment 1; Coordinate 58:
		Value =     1.745389; Fixed value    =     1.745329
		Force =    -0.000030; Force constant =     0.500000
	Removing off-diagonal coupling between coordinate 58 and others.
	Taking RFO optimization step.
	Going to follow RFO solution 1.
	Using RFO vector 1.

	Determining step-restricting scale parameter for RS-RFO.
	Maximum step size allowed    0.10000

	 Iter      |step|        alpha        rfo_root  
	------------------------------------------------
	    0     0.20773       1.00000           1
	    1     0.16069       5.75828           1
	    2     0.12592      16.98621           1
	    3     0.10715      30.59191           1
	    4     0.10077      37.58189           1
	    5     0.10001      38.52914           1
	    6     0.10000      38.54253           1
	------------------------------------------------
	Norm of target step-size    0.10000
	Projected energy change by RFO approximation:        -0.0044120514

	Back-transformation to cartesian coordinates...
	Could not converge backtransformation.
	Using first guess instead.

	--- Internal Coordinate Step in ANG or DEG, aJ/ANG or AJ/DEG ---
	 ---------------------------------------------------------------------------
	   Coordinate                Previous        Force       Change         New 
	   ----------                --------       ------       ------       ------
	    1 R(1,4)          =      1.069698     0.098631     0.011746     1.081444
	    2 R(2,4)          =      1.070683     0.096835     0.011549     1.082232
	    3 R(3,4)          =      1.069320     0.100960     0.012008     1.081328
	    4 R(4,7)          =      1.540645    -0.052512    -0.007380     1.533265
	    5 R(5,7)          =      1.070326     0.101687     0.012082     1.082409
	    6 R(6,7)          =      1.069761     0.108832     0.012914     1.082675
	    7 R(7,10)         =      1.540128    -0.073129    -0.010156     1.529972
	    8 R(8,10)         =      1.069698     0.102244     0.012142     1.081839
	    9 R(9,10)         =      1.069668     0.103103     0.012244     1.081912
	   10 R(10,14)        =      1.539422     0.020359     0.002970     1.542392
	   11 R(11,14)        =      1.070299     0.091953     0.011111     1.081411
	   12 R(12,14)        =      1.069705     0.096530     0.011510     1.081216
	   13 R(13,14)        =      1.069769     0.093481     0.011154     1.080922
	   14 B(1,4,2)        =    109.484805    -0.000253    -0.557155   108.927649
	   15 B(1,4,3)        =    109.499161    -0.000170    -0.429987   109.069174
	   16 B(1,4,7)        =    109.457783     0.000140     0.303767   109.761550
	   17 B(2,4,3)        =    109.437340    -0.000239    -0.526201   108.911140
	   18 B(2,4,7)        =    109.467262     0.000415     0.966588   110.433851
	   19 B(3,4,7)        =    109.480971     0.000108     0.229135   109.710106
	   20 B(4,7,5)        =    109.431343    -0.000108    -0.104762   109.326581
	   21 B(4,7,6)        =    109.528316    -0.000140    -0.184120   109.344196
	   22 B(4,7,10)       =    109.501062     0.000686     1.410569   110.911631
	   23 B(5,7,6)        =    109.469614     0.000021    -0.187096   109.282518
	   24 B(5,7,10)       =    109.437654    -0.000248    -0.522739   108.914915
	   25 B(6,7,10)       =    109.459295    -0.000211    -0.421617   109.037678
	   26 B(7,10,8)       =    109.452301    -0.000282    -0.581004   108.871296
	   27 B(7,10,9)       =    109.482155    -0.000280    -0.638099   108.844056
	   28 B(7,10,14)      =    109.504437     0.000745     1.536984   111.041421
	   29 B(8,10,9)       =    109.458846     0.000001    -0.275545   109.183301
	   30 B(8,10,14)      =    109.478806    -0.000106    -0.067145   109.411661
	   31 B(9,10,14)      =    109.450772    -0.000079     0.009737   109.460510
	   32 B(10,14,11)     =    109.492899     0.000198     0.459399   109.952297
	   33 B(10,14,12)     =    109.517790     0.000449     1.008571   110.526361
	   34 B(10,14,13)     =    109.505325     0.000332     0.751540   110.256865
	   35 B(11,14,12)     =    109.426802    -0.000317    -0.726261   108.700541
	   36 B(11,14,13)     =    109.465031    -0.000282    -0.627659   108.837372
	   37 B(12,14,13)     =    109.419415    -0.000380    -0.897966   108.521449
	   38 D(1,4,7,5)      =    179.965873     0.000007     0.091567   180.057439
	   39 D(1,4,7,6)      =    -60.025575    -0.000022    -0.312656   -60.338231
	   40 D(1,4,7,10)     =     60.013132    -0.000004    -0.071643    59.941490
	   41 D(2,4,7,5)      =    -60.028143     0.000014     0.195987   -59.832156
	   42 D(2,4,7,6)      =     59.980409    -0.000015    -0.208236    59.772173
	   43 D(2,4,7,10)     =   -179.980883     0.000002     0.032777  -179.948106
	   44 D(3,4,7,5)      =     59.933911     0.000020     0.291033    60.224944
	   45 D(3,4,7,6)      =    179.942463    -0.000009    -0.113190   179.829273
	   46 D(3,4,7,10)     =    -60.018830     0.000009     0.127824   -59.891006
	   47 D(4,7,10,8)     =    -60.009777     0.000041     0.573682   -59.436095
	   48 D(4,7,10,9)     =     59.970178    -0.000037    -0.486703    59.483475
	   49 D(4,7,10,14)    =    179.972182     0.000006     0.072958   180.045140
	   50 D(5,7,10,8)     =   -179.958653     0.000010     0.161768  -179.796884
	   51 D(5,7,10,9)     =    -59.978698    -0.000068    -0.898617   -60.877315
	   52 D(5,7,10,14)    =     60.023306    -0.000025    -0.338955    59.684350
	   53 D(6,7,10,8)     =     60.071149     0.000069     0.954533    61.025682
	   54 D(6,7,10,9)     =   -179.948896    -0.000010    -0.105852  -180.054749
	   55 D(6,7,10,14)    =    -59.946893     0.000034     0.453809   -59.493084
	   56 D(7,10,14,11)   =    -20.023196    -0.000009    -0.123250   -20.146446
	   57 D(7,10,14,12)   =   -140.010605    -0.000011    -0.145125  -140.155730
	   58 D(7,10,14,13)   =    100.003415    -0.000014    -0.141612    99.861803
	   59 D(8,10,14,11)   =   -140.025018    -0.000020    -0.319980  -140.344999
	   60 D(8,10,14,12)   =     99.987573    -0.000021    -0.341856    99.645717
	   61 D(8,10,14,13)   =    -19.998407    -0.000024    -0.338343   -20.336749
	   62 D(9,10,14,11)   =     99.998011     0.000006     0.051981   100.049993
	   63 D(9,10,14,12)   =    -19.989397     0.000004     0.030106   -19.959291
	   64 D(9,10,14,13)   =   -139.975377     0.000001     0.033619  -139.941758
	 ---------------------------------------------------------------------------
	Successfully symmetrized geometry.
	 Forces used to impose fixed constraints are not included.
	  Forces zeroed: 58 

  ==> Convergence Check <==

  Measures of convergence in internal coordinates in au.
  Criteria marked as inactive (o), active & met (*), and active & unmet ( ).
  --------------------------------------------------------------------------------------------- ~
   Step     Total Energy     Delta E     MAX Force     RMS Force      MAX Disp      RMS Disp    ~
  --------------------------------------------------------------------------------------------- ~
    Convergence Criteria    1.00e-06 *    3.00e-04 *             o    1.20e-03 *             o  ~
  --------------------------------------------------------------------------------------------- ~
      1    -158.15338557   -1.58e+02      1.32e-02      5.66e-03 o    2.68e-02      1.25e-02 o  ~
  ---------------------------------------------------------------------------------------------

	Writing optimization data to binary file.
	Structure for next step:
	Cartesian Geometry (in Angstrom)
	    H    -2.3332606962   0.0594823519   0.3180188668
	    H    -2.1898764285   1.6991580121  -0.3072237264
	    H    -1.8902919435   0.3250566248  -1.3660672848
	    C    -1.7807438393   0.6984886538  -0.3571971814
	    H     0.2478665513   1.3483391909  -0.6460786504
	    H    -0.1949239612   1.0838228299   1.0426317771
	    C    -0.2980247469   0.7062831253   0.0331672072
	    H    -0.2563503046  -1.3455968641   0.6414086678
	    H     0.1865349334  -1.0781971275  -1.0445516256
	    C     0.2920474219  -0.7036734103  -0.0350307245
	    H     2.1890049310   0.2978879775   0.2568435880
	    H     2.3453542106  -1.3685663299  -0.2786262143
	    H     1.9011009034  -1.0215129756   1.3833356647
	    C     1.7834556177  -0.6994579396   0.3582340463
			--------------------------
			 OPTKING Finished Execution 
			--------------------------

    Structure for next step:
    Molecular point group: c1
    Full point group: C1

    Geometry (in Angstrom), charge = 0, multiplicity = 1:

    H           -2.332675485725     0.059145601837     0.318195028863
    H           -2.189291218032     1.698821262079    -0.307047564342
    H           -1.889706733082     0.324719874782    -1.365891122792
    C           -1.780158628843     0.698151903792    -0.357021019387
    H            0.248451761785     1.348002440841    -0.645902488365
    H           -0.194338750759     1.083486079899     1.042807939099
    C           -0.297439536395     0.705946375282     0.033343369262
    H           -0.255765094122    -1.345933614166     0.641584829801
    H            0.187120143868    -1.078533877528    -1.044375463585
    C            0.292632632341    -0.704010160357    -0.034854562431
    H            2.189590141472     0.297551227430     0.257019749992
    H            2.345939421058    -1.368903079910    -0.278450052252
    H            1.901686113886    -1.021849725590     1.383511826762
    C            1.784040828205    -0.699794689592     0.358410208350

gradient() will perform analytic gradient computation.

*** tstart() called on gpu-1-10.local
*** at Wed Jun 14 14:37:07 2017

    SCF Algorithm Type (re)set to DF.

*** tstart() called on gpu-1-10.local
*** at Wed Jun 14 14:37:07 2017

   => Loading Basis Set <=

    Name: AUG-CC-PVTZ
    Role: ORBITAL
    Keyword: BASIS
    atoms 1-3, 5-6, 8-9, 11-13 entry H          line    34 file /cbio/jclab/home/chayas/anaconda/envs/py35/share/psi4/basis/aug-cc-pvtz.gbs 
    atoms 4, 7, 10, 14         entry C          line   221 file /cbio/jclab/home/chayas/anaconda/envs/py35/share/psi4/basis/aug-cc-pvtz.gbs 


         ---------------------------------------------------------
                                   SCF
            by Justin Turney, Rob Parrish, and Andy Simmonett
                              RHF Reference
                        1 Threads,    953 MiB Core
         ---------------------------------------------------------

  ==> Geometry <==

    Molecular point group: c1
    Full point group: C1

    Geometry (in Angstrom), charge = 0, multiplicity = 1:

       Center              X                  Y                   Z               Mass       
    ------------   -----------------  -----------------  -----------------  -----------------
           H         -2.332675485725     0.059145601837     0.318195028863     1.007825032070
           H         -2.189291218032     1.698821262079    -0.307047564342     1.007825032070
           H         -1.889706733082     0.324719874782    -1.365891122792     1.007825032070
           C         -1.780158628843     0.698151903792    -0.357021019387    12.000000000000
           H          0.248451761785     1.348002440841    -0.645902488365     1.007825032070
           H         -0.194338750759     1.083486079899     1.042807939099     1.007825032070
           C         -0.297439536395     0.705946375282     0.033343369262    12.000000000000
           H         -0.255765094122    -1.345933614166     0.641584829801     1.007825032070
           H          0.187120143868    -1.078533877528    -1.044375463585     1.007825032070
           C          0.292632632341    -0.704010160357    -0.034854562431    12.000000000000
           H          2.189590141472     0.297551227430     0.257019749992     1.007825032070
           H          2.345939421058    -1.368903079910    -0.278450052252     1.007825032070
           H          1.901686113886    -1.021849725590     1.383511826762     1.007825032070
           C          1.784040828205    -0.699794689592     0.358410208350    12.000000000000

  Running in c1 symmetry.

  Rotational constants: A =      0.77701  B =      0.12305  C =      0.11531 [cm^-1]
  Rotational constants: A =  23294.25365  B =   3688.80188  C =   3457.05262 [MHz]
  Nuclear repulsion =  131.299740567950892

  Charge       = 0
  Multiplicity = 1
  Electrons    = 34
  Nalpha       = 17
  Nbeta        = 17

  ==> Algorithm <==

  SCF Algorithm Type is DF.
  DIIS enabled.
  MOM disabled.
  Fractional occupation disabled.
  Guess Type is READ.
  Energy threshold   = 1.00e-10
  Density threshold  = 1.00e-10
  Integral threshold = 0.00e+00

  ==> Primary Basis <==

  Basis Set: AUG-CC-PVTZ
    Blend: AUG-CC-PVTZ
    Number of shells: 146
    Number of basis function: 414
    Number of Cartesian functions: 470
    Spherical Harmonics?: true
    Max angular momentum: 3

   => Loading Basis Set <=

    Name: (AUG-CC-PVTZ AUX)
    Role: JKFIT
    Keyword: DF_BASIS_SCF
    atoms 1-3, 5-6, 8-9, 11-13 entry H          line    69 file /cbio/jclab/home/chayas/anaconda/envs/py35/share/psi4/basis/aug-cc-pvtz-jkfit.gbs 
    atoms 4, 7, 10, 14         entry C          line   161 file /cbio/jclab/home/chayas/anaconda/envs/py35/share/psi4/basis/aug-cc-pvtz-jkfit.gbs 

  Reading orbitals from file 180, no projection.

  ==> Pre-Iterations <==

   -------------------------------------------------------
    Irrep   Nso     Nmo     Nalpha   Nbeta   Ndocc  Nsocc
   -------------------------------------------------------
     A        414     414       0       0       0       0
   -------------------------------------------------------
    Total     414     414      17      17      17       0
   -------------------------------------------------------

  ==> Integral Setup <==

  ==> DFJK: Density-Fitted J/K Matrices <==

    J tasked:                  Yes
    K tasked:                  Yes
    wK tasked:                  No
    OpenMP threads:              1
    Integrals threads:           1
    Memory (MB):               715
    Algorithm:                Core
    Integral Cache:           NONE
    Schwarz Cutoff:          1E-12
    Fitting Condition:       1E-12

   => Auxiliary Basis Set <=

  Basis Set: (AUG-CC-PVTZ AUX)
    Blend: AUG-CC-PVTZ-JKFIT
    Number of shells: 260
    Number of basis function: 876
    Number of Cartesian functions: 1074
    Spherical Harmonics?: true
    Max angular momentum: 4

  Minimum eigenvalue in the overlap matrix is 9.0727902768E-06.
  Using Symmetric Orthogonalization.

  SCF Guess: Orbitals guess was supplied from a previous computation.

  ==> Iterations <==

                           Total Energy        Delta E     RMS |[F,P]|

   @DF-RHF iter   0:  -157.27558728376997   -1.57276e+02   1.22276e-04 
   @DF-RHF iter   1:  -157.35113966650167   -7.55524e-02   4.95936e-05 
   @DF-RHF iter   2:  -157.35138999313517   -2.50327e-04   2.56203e-05 DIIS
   @DF-RHF iter   3:  -157.35144335904590   -5.33659e-05   2.80243e-06 DIIS
   @DF-RHF iter   4:  -157.35144477341993   -1.41437e-06   7.58456e-07 DIIS
   @DF-RHF iter   5:  -157.35144486090383   -8.74839e-08   2.55177e-07 DIIS
   @DF-RHF iter   6:  -157.35144487107877   -1.01749e-08   4.39260e-08 DIIS
   @DF-RHF iter   7:  -157.35144487151263   -4.33857e-10   6.80790e-09 DIIS
   @DF-RHF iter   8:  -157.35144487152243   -9.80549e-12   1.42168e-09 DIIS
   @DF-RHF iter   9:  -157.35144487152206    3.69482e-13   3.41785e-10 DIIS
   @DF-RHF iter  10:  -157.35144487152439   -2.33058e-12   8.08593e-11 DIIS

  ==> Post-Iterations <==

    Orbital Energies (a.u.)
    -----------------------

    Doubly Occupied:                                                      

       1A    -11.210454     2A    -11.209511     3A    -11.203476  
       4A    -11.202944     5A     -1.070247     6A     -0.978826  
       7A     -0.860544     8A     -0.789897     9A     -0.643960  
      10A     -0.584088    11A     -0.573159    12A     -0.572452  
      13A     -0.510827    14A     -0.501444    15A     -0.467927  
      16A     -0.465060    17A     -0.448256  

    Virtual:                                                              

      18A      0.032328    19A      0.037480    20A      0.039492  
      21A      0.040421    22A      0.058103    23A      0.058795  
      24A      0.060220    25A      0.061144    26A      0.077914  
      27A      0.082958    28A      0.102218    29A      0.112645  
      30A      0.122609    31A      0.130628    32A      0.138350  
      33A      0.141758    34A      0.142178    35A      0.145182  
      36A      0.148341    37A      0.160838    38A      0.166114  
      39A      0.166343    40A      0.172422    41A      0.200127  
      42A      0.202108    43A      0.215916    44A      0.226151  
      45A      0.240816    46A      0.249410    47A      0.253066  
      48A      0.266147    49A      0.277918    50A      0.282191  
      51A      0.288011    52A      0.311799    53A      0.318712  
      54A      0.331345    55A      0.338144    56A      0.346229  
      57A      0.355972    58A      0.357236    59A      0.358696  
      60A      0.366979    61A      0.367453    62A      0.370761  
      63A      0.381958    64A      0.387016    65A      0.389488  
      66A      0.391036    67A      0.396667    68A      0.399335  
      69A      0.403810    70A      0.409237    71A      0.415993  
      72A      0.429468    73A      0.440451    74A      0.444882  
      75A      0.447746    76A      0.459957    77A      0.460777  
      78A      0.463822    79A      0.468488    80A      0.485036  
      81A      0.488879    82A      0.498833    83A      0.501744  
      84A      0.507065    85A      0.515625    86A      0.517743  
      87A      0.521676    88A      0.529363    89A      0.541998  
      90A      0.543053    91A      0.546854    92A      0.555026  
      93A      0.566263    94A      0.573939    95A      0.581452  
      96A      0.587872    97A      0.598836    98A      0.611220  
      99A      0.612599   100A      0.633767   101A      0.640481  
     102A      0.653715   103A      0.676553   104A      0.678641  
     105A      0.697514   106A      0.720625   107A      0.756993  
     108A      0.773039   109A      0.796908   110A      0.811035  
     111A      0.821188   112A      0.827563   113A      0.834108  
     114A      0.841600   115A      0.845526   116A      0.859587  
     117A      0.863696   118A      0.877304   119A      0.879416  
     120A      0.888242   121A      0.894668   122A      0.901172  
     123A      0.915223   124A      0.918612   125A      0.921891  
     126A      0.926795   127A      0.929852   128A      0.935639  
     129A      0.945452   130A      0.954904   131A      0.962136  
     132A      0.975186   133A      0.980018   134A      0.990678  
     135A      0.995562   136A      1.015379   137A      1.029920  
     138A      1.031210   139A      1.044214   140A      1.069764  
     141A      1.076173   142A      1.077411   143A      1.087858  
     144A      1.092816   145A      1.101183   146A      1.108510  
     147A      1.117806   148A      1.134316   149A      1.149548  
     150A      1.153771   151A      1.159970   152A      1.168574  
     153A      1.176101   154A      1.191278   155A      1.209265  
     156A      1.215145   157A      1.225298   158A      1.238476  
     159A      1.243570   160A      1.246738   161A      1.256864  
     162A      1.266708   163A      1.273031   164A      1.286155  
     165A      1.291703   166A      1.303335   167A      1.309973  
     168A      1.317740   169A      1.336239   170A      1.352742  
     171A      1.366623   172A      1.388060   173A      1.407640  
     174A      1.416357   175A      1.426362   176A      1.439111  
     177A      1.452328   178A      1.477370   179A      1.490146  
     180A      1.501755   181A      1.517093   182A      1.527343  
     183A      1.539405   184A      1.554672   185A      1.566023  
     186A      1.584742   187A      1.599448   188A      1.605799  
     189A      1.622880   190A      1.638220   191A      1.645629  
     192A      1.663880   193A      1.679432   194A      1.685978  
     195A      1.698117   196A      1.701176   197A      1.709326  
     198A      1.712114   199A      1.727164   200A      1.733171  
     201A      1.738534   202A      1.756334   203A      1.757286  
     204A      1.764453   205A      1.771934   206A      1.776385  
     207A      1.784723   208A      1.808288   209A      1.818899  
     210A      1.849181   211A      1.857197   212A      1.877997  
     213A      1.896440   214A      1.907394   215A      1.920448  
     216A      1.934274   217A      1.959540   218A      1.965148  
     219A      1.984726   220A      1.994896   221A      2.001089  
     222A      2.017800   223A      2.023888   224A      2.032238  
     225A      2.047655   226A      2.054325   227A      2.077456  
     228A      2.085058   229A      2.096674   230A      2.154444  
     231A      2.171386   232A      2.182031   233A      2.188015  
     234A      2.211409   235A      2.234227   236A      2.254590  
     237A      2.263501   238A      2.278140   239A      2.292266  
     240A      2.301371   241A      2.318844   242A      2.336042  
     243A      2.341246   244A      2.345185   245A      2.365219  
     246A      2.381113   247A      2.410163   248A      2.438588  
     249A      2.461875   250A      2.473820   251A      2.507605  
     252A      2.532545   253A      2.591431   254A      2.610610  
     255A      2.624630   256A      2.666159   257A      2.792449  
     258A      2.887277   259A      2.972510   260A      3.040630  
     261A      3.204760   262A      3.245680   263A      3.293402  
     264A      3.364728   265A      3.397338   266A      3.427640  
     267A      3.442875   268A      3.456994   269A      3.475866  
     270A      3.486952   271A      3.515427   272A      3.561067  
     273A      3.571417   274A      3.585041   275A      3.593527  
     276A      3.603521   277A      3.625084   278A      3.659808  
     279A      3.680369   280A      3.682502   281A      3.695784  
     282A      3.712436   283A      3.725670   284A      3.741147  
     285A      3.744698   286A      3.780133   287A      3.786710  
     288A      3.797364   289A      3.824112   290A      3.830607  
     291A      3.847451   292A      3.867348   293A      3.879883  
     294A      3.886158   295A      3.902378   296A      3.912388  
     297A      3.960496   298A      3.972793   299A      3.973946  
     300A      3.981985   301A      3.998221   302A      4.004824  
     303A      4.017844   304A      4.027214   305A      4.049802  
     306A      4.056618   307A      4.070393   308A      4.087103  
     309A      4.149564   310A      4.167997   311A      4.181202  
     312A      4.191939   313A      4.224879   314A      4.231478  
     315A      4.238386   316A      4.259586   317A      4.267930  
     318A      4.284610   319A      4.307470   320A      4.318787  
     321A      4.341786   322A      4.362531   323A      4.374756  
     324A      4.408606   325A      4.435939   326A      4.457398  
     327A      4.508108   328A      4.517215   329A      4.552753  
     330A      4.566428   331A      4.596499   332A      4.640513  
     333A      4.646620   334A      4.667073   335A      4.701014  
     336A      4.705092   337A      4.725725   338A      4.737414  
     339A      4.755681   340A      4.787642   341A      4.797694  
     342A      4.849143   343A      4.856979   344A      4.867761  
     345A      4.880904   346A      4.928056   347A      4.936723  
     348A      4.947297   349A      4.968958   350A      4.991912  
     351A      5.024054   352A      5.039666   353A      5.053288  
     354A      5.092430   355A      5.111168   356A      5.130697  
     357A      5.160333   358A      5.175083   359A      5.203243  
     360A      5.228305   361A      5.239017   362A      5.253745  
     363A      5.279798   364A      5.294682   365A      5.308760  
     366A      5.321070   367A      5.353321   368A      5.371464  
     369A      5.414758   370A      5.431786   371A      5.443949  
     372A      5.449459   373A      5.482298   374A      5.496395  
     375A      5.550888   376A      5.567621   377A      5.569830  
     378A      5.622276   379A      5.630731   380A      5.658928  
     381A      5.676110   382A      5.718227   383A      5.745905  
     384A      5.765515   385A      5.795850   386A      5.818889  
     387A      5.861288   388A      5.903824   389A      5.942938  
     390A      5.999160   391A      6.059006   392A      6.110744  
     393A      6.140081   394A      6.167866   395A      6.190271  
     396A      6.216177   397A      6.233916   398A      6.295630  
     399A      6.302524   400A      6.332965   401A      6.356206  
     402A      6.456809   403A      6.556747   404A      6.599706  
     405A      6.736215   406A      6.777425   407A      6.827350  
     408A      6.848748   409A      6.863225   410A      6.983887  
     411A     17.997056   412A     18.108956   413A     18.812781  
     414A     19.355687  

    Final Occupation by Irrep:
              A 
    DOCC [    17 ]

  Energy converged.

  @DF-RHF Final Energy:  -157.35144487152439

   => Energetics <=

    Nuclear Repulsion Energy =            131.2997405679508915
    One-Electron Energy =                -470.7162247921322660
    Two-Electron Energy =                 182.0650393526569815
    DFT Exchange-Correlation Energy =       0.0000000000000000
    Empirical Dispersion Energy =           0.0000000000000000
    PCM Polarization Energy =               0.0000000000000000
    EFP Energy =                            0.0000000000000000
    Total Energy =                       -157.3514448715243930



Properties will be evaluated at   0.000000,   0.000000,   0.000000 Bohr

Properties computed using the SCF density matrix

  Nuclear Dipole Moment: (a.u.)
     X:     0.0103      Y:    -0.0033      Z:     0.0014

  Electronic Dipole Moment: (a.u.)
     X:    -0.0110      Y:     0.0032      Z:    -0.0003

  Dipole Moment: (a.u.)
     X:    -0.0006      Y:    -0.0000      Z:     0.0010     Total:     0.0012

  Dipole Moment: (Debye)
     X:    -0.0016      Y:    -0.0001      Z:     0.0026     Total:     0.0031


*** tstop() called on gpu-1-10.local at Wed Jun 14 14:38:03 2017
Module time:
	user time   =      55.70 seconds =       0.93 minutes
	system time =       0.36 seconds =       0.01 minutes
	total time  =         56 seconds =       0.93 minutes
Total time:
	user time   =     350.67 seconds =       5.84 minutes
	system time =       3.55 seconds =       0.06 minutes
	total time  =        355 seconds =       5.92 minutes

  //>>>>>>>>>>>>>>>>>>>>>>>>>>>>>>>>>>>//
  //               DFMP2               //
  //<<<<<<<<<<<<<<<<<<<<<<<<<<<<<<<<<<<//

   => Loading Basis Set <=

    Name: (AUG-CC-PVTZ AUX)
    Role: RIFIT
    Keyword: DF_BASIS_MP2
    atoms 1-3, 5-6, 8-9, 11-13 entry H          line    29 file /cbio/jclab/home/chayas/anaconda/envs/py35/share/psi4/basis/aug-cc-pvtz-ri.gbs 
    atoms 4, 7, 10, 14         entry C          line   147 file /cbio/jclab/home/chayas/anaconda/envs/py35/share/psi4/basis/aug-cc-pvtz-ri.gbs 

	 --------------------------------------------------------
	                          DF-MP2                         
	      2nd-Order Density-Fitted Moller-Plesset Theory     
	              RMP2 Wavefunction,   1 Threads             
	                                                         
	        Rob Parrish, Justin Turney, Andy Simmonett,      
	           Ed Hohenstein, and C. David Sherrill          
	 --------------------------------------------------------

   => Auxiliary Basis Set <=

  Basis Set: (AUG-CC-PVTZ AUX)
    Blend: AUG-CC-PVTZ-RI
    Number of shells: 252
    Number of basis function: 884
    Number of Cartesian functions: 1094
    Spherical Harmonics?: true
    Max angular momentum: 4

	 --------------------------------------------------------
	                 NBF =   414, NAUX =   884
	 --------------------------------------------------------
	   CLASS    FOCC     OCC    AOCC    AVIR     VIR    FVIR
	   PAIRS       0      17      17     397     397       0
	 --------------------------------------------------------


         ------------------------------------------------------------
                                     CPHF                           
                                  Rob Parrish                       
         ------------------------------------------------------------

  ==> Geometry <==

    Molecular point group: c1
    Full point group: C1

    Geometry (in Angstrom), charge = 0, multiplicity = 1:

       Center              X                  Y                   Z               Mass       
    ------------   -----------------  -----------------  -----------------  -----------------
           H         -2.332675485725     0.059145601837     0.318195028863     1.007825032070
           H         -2.189291218032     1.698821262079    -0.307047564342     1.007825032070
           H         -1.889706733082     0.324719874782    -1.365891122792     1.007825032070
           C         -1.780158628843     0.698151903792    -0.357021019387    12.000000000000
           H          0.248451761785     1.348002440841    -0.645902488365     1.007825032070
           H         -0.194338750759     1.083486079899     1.042807939099     1.007825032070
           C         -0.297439536395     0.705946375282     0.033343369262    12.000000000000
           H         -0.255765094122    -1.345933614166     0.641584829801     1.007825032070
           H          0.187120143868    -1.078533877528    -1.044375463585     1.007825032070
           C          0.292632632341    -0.704010160357    -0.034854562431    12.000000000000
           H          2.189590141472     0.297551227430     0.257019749992     1.007825032070
           H          2.345939421058    -1.368903079910    -0.278450052252     1.007825032070
           H          1.901686113886    -1.021849725590     1.383511826762     1.007825032070
           C          1.784040828205    -0.699794689592     0.358410208350    12.000000000000

  Nuclear repulsion =  131.299740567950892
  Reference energy  = -157.351444871524393

  ==> Basis Set <==

  Basis Set: AUG-CC-PVTZ
    Blend: AUG-CC-PVTZ
    Number of shells: 146
    Number of basis function: 414
    Number of Cartesian functions: 470
    Spherical Harmonics?: true
    Max angular momentum: 3

  ==> CGRSolver (by Rob Parrish) <==

   Number of roots    =         1
   Preconditioning    =    JACOBI
   Convergence cutoff =     1E-06
   Maximum iterations =       100

  ==> CPHFRHamiltonian (by Rob Parrish) <== 

  ==> DFJK: Density-Fitted J/K Matrices <==

    J tasked:                  Yes
    K tasked:                  Yes
    wK tasked:                  No
    OpenMP threads:              1
    Integrals threads:           1
    Memory (MB):               715
    Algorithm:                Core
    Integral Cache:           NONE
    Schwarz Cutoff:          1E-12
    Fitting Condition:       1E-12

   => Auxiliary Basis Set <=

  Basis Set: (AUG-CC-PVTZ AUX)
    Blend: AUG-CC-PVTZ-JKFIT
    Number of shells: 260
    Number of basis function: 876
    Number of Cartesian functions: 1074
    Spherical Harmonics?: true
    Max angular momentum: 4

  ==> CPHF Iterations <==

  => Iterations <=

             Iter  Converged  Remaining    Residual
  CGR           1          0          1   8.297E-02
  CGR           2          0          1   1.328E-02
  CGR           3          0          1   3.489E-03
  CGR           4          0          1   8.150E-04
  CGR           5          0          1   1.202E-04
  CGR           6          0          1   2.205E-05
  CGR           7          0          1   3.967E-06
  CGR           8          1          0   9.386E-07

    CGRSolver converged.

  ==> DFCorrGrad: Density-Fitted Correlated Gradients <==

    OpenMP threads:              1
    Integrals threads:           1
    Memory (MB):               715
    Schwarz Cutoff:          0E+00
    Fitting Condition:       1E-12

   => Auxiliary Basis Set <=

  Basis Set: (AUG-CC-PVTZ AUX)
    Blend: AUG-CC-PVTZ-JKFIT
    Number of shells: 260
    Number of basis function: 876
    Number of Cartesian functions: 1074
    Spherical Harmonics?: true
    Max angular momentum: 4

	-----------------------------------------------------------
	 ==================> DF-MP2 Energies <==================== 
	-----------------------------------------------------------
	 Reference Energy          =    -157.3514448715243930 [Eh]
	 Singles Energy            =      -0.0000000000000001 [Eh]
	 Same-Spin Energy          =      -0.1653421876233307 [Eh]
	 Opposite-Spin Energy      =      -0.6396829448296130 [Eh]
	 Correlation Energy        =      -0.8050251324529437 [Eh]
	 Total Energy              =    -158.1564700039773470 [Eh]
	-----------------------------------------------------------
	 ================> DF-SCS-MP2 Energies <================== 
	-----------------------------------------------------------
	 SCS Same-Spin Scale       =       0.3333333333333333 [-]
	 SCS Opposite-Spin Scale   =       1.2000000000000000 [-]
	 SCS Same-Spin Energy      =      -0.0551140625411102 [Eh]
	 SCS Opposite-Spin Energy  =      -0.7676195337955355 [Eh]
	 SCS Correlation Energy    =      -0.8227335963366459 [Eh]
	 SCS Total Energy          =    -158.1741784678610259 [Eh]
	-----------------------------------------------------------


  -Total Gradient:
     Atom            X                  Y                   Z
    ------   -----------------  -----------------  -----------------
       1        0.003606167670     0.002264357722    -0.001406703728
       2        0.003423162094    -0.002394588927     0.000508750034
       3        0.002216742759     0.001591287604     0.003639716754
       4       -0.013998218161    -0.003812819881    -0.004593355581
       5       -0.003559010729    -0.003800314850     0.000546343898
       6       -0.002674227679    -0.003637609286    -0.003357160055
       7        0.013964204433     0.016296341293     0.005065484324
       8        0.003869387747     0.004503025171     0.000480278669
       9        0.003024848433     0.002671475523     0.003367276041
      10       -0.012440772678    -0.016199794120    -0.004854263366
      11       -0.003330603943    -0.002774642122     0.000438515520
      12       -0.003973677696     0.002290435046     0.000223700344
      13       -0.002740550125    -0.000590822289    -0.003713253833
      14        0.012612547878     0.003593669114     0.003654670977


*** tstop() called on gpu-1-10.local at Wed Jun 14 14:41:52 2017
Module time:
	user time   =     282.04 seconds =       4.70 minutes
	system time =       2.84 seconds =       0.05 minutes
	total time  =        285 seconds =       4.75 minutes
Total time:
	user time   =     577.01 seconds =       9.62 minutes
	system time =       6.03 seconds =       0.10 minutes
	total time  =        584 seconds =       9.73 minutes

			-----------------------------------------
			 OPTKING 2.0: for geometry optimizations 
			  - R.A. King,  Bethel University        
			-----------------------------------------

	Previous internal coordinate definitions found.
	---Fragment 1 Geometry and Gradient---
	 H          -4.4081178249        0.1117689894        0.6013014614
	 H          -4.1371608272        3.2103069341       -0.5802358064
	 H          -3.5710281970        0.6136316332       -2.5811601494
	 C          -3.3640122816        1.3193158973       -0.6746719503
	 H           0.4695057870        2.5473554397       -1.2205788116
	 H          -0.3672470159        2.0474919598        1.9706214141
	 C          -0.5620792649        1.3340453138        0.0630098363
	 H          -0.4833259822       -2.5434459238        1.2124196193
	 H           0.3536058259       -2.0381336536       -1.9735836061
	 C           0.5529955327       -1.3303863978       -0.0658655775
	 H           4.1377257106        0.5622903303        0.4856969382
	 H           4.4331830301       -2.5868519235       -0.5261943404
	 H           3.5936659460       -1.9310161303        2.6144584542
	 C           3.3713485752       -1.3224203126        0.6772971370
	             0.0036061677        0.0022643577       -0.0014067037
	             0.0034231621       -0.0023945889        0.0005087500
	             0.0022167428        0.0015912876        0.0036397168
	            -0.0139982182       -0.0038128199       -0.0045933556
	            -0.0035590107       -0.0038003148        0.0005463439
	            -0.0026742277       -0.0036376093       -0.0033571601
	             0.0139642044        0.0162963413        0.0050654843
	             0.0038693877        0.0045030252        0.0004802787
	             0.0030248484        0.0026714755        0.0033672760
	            -0.0124407727       -0.0161997941       -0.0048542634
	            -0.0033306039       -0.0027746421        0.0004385155
	            -0.0039736777        0.0022904350        0.0002237003
	            -0.0027405501       -0.0005908223       -0.0037132538
	             0.0126125479        0.0035936691        0.0036546710

	---Fragment 1 Intrafragment Coordinates---
	 - Coordinate -           - BOHR/RAD -       - ANG/DEG -
	 R(1,4)           =         2.043633	       1.081444
	 R(2,4)           =         2.045122	       1.082232
	 R(3,4)           =         2.043415	       1.081328
	 R(4,7)           =         2.897451	       1.533265
	 R(5,7)           =         2.045456	       1.082409
	 R(6,7)           =         2.045959	       1.082675
	 R(7,10)          =         2.891228	       1.529972
	 R(8,10)          =         2.044380	       1.081839
	 R(9,10)          =         2.044517	       1.081912
	 R(10,14)         =         2.914699	       1.542392
	 R(11,14)         =         2.043570	       1.081411
	 R(12,14)         =         2.043201	       1.081216
	 R(13,14)         =         2.042647	       1.080922
	 B(1,4,2)         =         1.901146	     108.927649
	 B(1,4,3)         =         1.903616	     109.069174
	 B(1,4,7)         =         1.915700	     109.761550
	 B(2,4,3)         =         1.900858	     108.911140
	 B(2,4,7)         =         1.927434	     110.433851
	 B(3,4,7)         =         1.914803	     109.710106
	 B(4,7,5)         =         1.908109	     109.326581
	 B(4,7,6)         =         1.908416	     109.344196
	 B(4,7,10)        =         1.935773	     110.911631
	 B(5,7,6)         =         1.907340	     109.282518
	 B(5,7,10)        =         1.900924	     108.914915
	 B(6,7,10)        =         1.903066	     109.037678
	 B(7,10,8)        =         1.900163	     108.871296
	 B(7,10,9)        =         1.899687	     108.844056
	 B(7,10,14)       =         1.938038	     111.041421
	 B(8,10,9)        =         1.905608	     109.183301
	 B(8,10,14)       =         1.909594	     109.411661
	 B(9,10,14)       =         1.910446	     109.460510
	 B(10,14,11)      =         1.919030	     109.952297
	 B(10,14,12)      =         1.929049	     110.526361
	 B(10,14,13)      =         1.924345	     110.256865
	 B(11,14,12)      =         1.897182	     108.700541
	 B(11,14,13)      =         1.899570	     108.837372
	 B(12,14,13)      =         1.894057	     108.521449
	 D(1,4,7,5)       =        -3.140590	    -179.942561
	 D(1,4,7,6)       =        -1.053101	     -60.338231
	 D(1,4,7,10)      =         1.046176	      59.941490
	 D(2,4,7,5)       =        -1.044268	     -59.832156
	 D(2,4,7,6)       =         1.043221	      59.772173
	 D(2,4,7,10)      =        -3.140687	    -179.948106
	 D(3,4,7,5)       =         1.051124	      60.224944
	 D(3,4,7,6)       =         3.138613	     179.829273
	 D(3,4,7,10)      =        -1.045295	     -59.891006
	 D(4,7,10,8)      =        -1.037356	     -59.436095
	 D(4,7,10,9)      =         1.038182	      59.483475
	 D(4,7,10,14)     =        -3.140805	    -179.954860
	 D(5,7,10,8)      =        -3.138048	    -179.796884
	 D(5,7,10,9)      =        -1.062510	     -60.877315
	 D(5,7,10,14)     =         1.041688	      59.684350
	 D(6,7,10,8)      =         1.065099	      61.025682
	 D(6,7,10,9)      =         3.140637	     179.945251
	 D(6,7,10,14)     =        -1.038350	     -59.493084
	 D(7,10,14,11)    =        -0.351622	     -20.146446
	 D(7,10,14,12)    =        -2.446179	    -140.155730
	 D(7,10,14,13)    =         1.742917	      99.861803
	 D(8,10,14,11)    =        -2.449482	    -140.344999
	 D(8,10,14,12)    =         1.739146	      99.645717
	 D(8,10,14,13)    =        -0.354943	     -20.336749
	 D(9,10,14,11)    =         1.746202	     100.049993
	 D(9,10,14,12)    =        -0.348355	     -19.959291
	 D(9,10,14,13)    =        -2.442444	    -139.941758

	Current energy   :      -158.1564700040

	Energy change for the previous step:
		Projected    :        -0.0044120514
		Actual       :        -0.0030844291

	Performing BFGS update.
	Previous computed or guess Hessian on step 1.
	Steps to be used in Hessian update: 1
	Adding user-defined constraint: Fragment 1; Coordinate 58:
		Value =     1.742917; Fixed value    =     1.745330
		Force =     0.001267; Force constant =     0.525000
	Removing off-diagonal coupling between coordinate 58 and others.
	Taking RFO optimization step.
	Going to follow RFO solution 1.
	Using RFO vector 1.

	Determining step-restricting scale parameter for RS-RFO.
	Maximum step size allowed    0.10000

	 Iter      |step|        alpha        rfo_root  
	------------------------------------------------
	    0     0.17408       1.00000           1
	    1     0.14177       5.12955           1
	    2     0.11550      14.54808           1
	    3     0.10310      22.85839           1
	    4     0.10017      25.42900           1
	    5     0.10000      25.58190           1
	------------------------------------------------
	Norm of target step-size    0.10000
	Projected energy change by RFO approximation:        -0.0015525945

	Back-transformation to cartesian coordinates...
	Successfully converged to displaced geometry.

	--- Internal Coordinate Step in ANG or DEG, aJ/ANG or AJ/DEG ---
	 ---------------------------------------------------------------------------
	   Coordinate                Previous        Force       Change         New 
	   ----------                --------       ------       ------       ------
	    1 R(1,4)          =      1.081444     0.033438     0.006103     1.087547
	    2 R(2,4)          =      1.082232     0.028710     0.004993     1.087225
	    3 R(3,4)          =      1.081328     0.034355     0.006271     1.087599
	    4 R(4,7)          =      1.533265    -0.041843    -0.011109     1.522156
	    5 R(5,7)          =      1.082409     0.036185     0.006691     1.089099
	    6 R(6,7)          =      1.082675     0.038337     0.007058     1.089733
	    7 R(7,10)         =      1.529972    -0.040085    -0.009782     1.520189
	    8 R(8,10)         =      1.081839     0.035699     0.006559     1.088398
	    9 R(9,10)         =      1.081912     0.035935     0.006599     1.088511
	   10 R(10,14)        =      1.542392    -0.021780    -0.007339     1.535053
	   11 R(11,14)        =      1.081411     0.031712     0.005909     1.087320
	   12 R(12,14)        =      1.081216     0.029777     0.005264     1.086480
	   13 R(13,14)        =      1.080922     0.030020     0.005389     1.086312
	   14 B(1,4,2)        =    108.927649    -0.000160    -0.668485   108.259164
	   15 B(1,4,3)        =    109.069174    -0.000155    -0.805475   108.263699
	   16 B(1,4,7)        =    109.761550     0.000132     0.624681   110.386231
	   17 B(2,4,3)        =    108.911140    -0.000153    -0.645419   108.265721
	   18 B(2,4,7)        =    110.433851     0.000208     0.849065   111.282916
	   19 B(3,4,7)        =    109.710106     0.000119     0.581155   110.291262
	   20 B(4,7,5)        =    109.326581    -0.000013     0.194746   109.521327
	   21 B(4,7,6)        =    109.344196    -0.000031     0.121560   109.465757
	   22 B(4,7,10)       =    110.911631     0.000278     1.077485   111.989116
	   23 B(5,7,6)        =    109.282518    -0.000078    -1.111216   108.171302
	   24 B(5,7,10)       =    108.914915    -0.000092    -0.237198   108.677717
	   25 B(6,7,10)       =    109.037678    -0.000068    -0.103453   108.934225
	   26 B(7,10,8)       =    108.871296    -0.000088    -0.108627   108.762669
	   27 B(7,10,9)       =    108.844056    -0.000110    -0.372767   108.471289
	   28 B(7,10,14)      =    111.041421     0.000294     1.124222   112.165643
	   29 B(8,10,9)       =    109.183301    -0.000091    -1.194635   107.988666
	   30 B(8,10,14)      =    109.411661    -0.000013     0.247470   109.659131
	   31 B(9,10,14)      =    109.460510     0.000001     0.232803   109.693312
	   32 B(10,14,11)     =    109.952297     0.000127     0.590281   110.542579
	   33 B(10,14,12)     =    110.526361     0.000216     0.798858   111.325219
	   34 B(10,14,13)     =    110.256865     0.000193     0.815730   111.072595
	   35 B(11,14,12)     =    108.700541    -0.000174    -0.718787   107.981754
	   36 B(11,14,13)     =    108.837372    -0.000159    -0.598823   108.238548
	   37 B(12,14,13)     =    108.521449    -0.000217    -0.976791   107.544659
	   38 D(1,4,7,5)      =   -179.942561     0.000009     0.455922  -179.486638
	   39 D(1,4,7,6)      =    -60.338231    -0.000019    -0.707758   -61.045989
	   40 D(1,4,7,10)     =     59.941490    -0.000002    -0.065056    59.876434
	   41 D(2,4,7,5)      =    -59.832156     0.000014     0.575893   -59.256264
	   42 D(2,4,7,6)      =     59.772173    -0.000014    -0.587788    59.184385
	   43 D(2,4,7,10)     =   -179.948106     0.000002     0.054915  -179.893191
	   44 D(3,4,7,5)      =     60.224944     0.000017     0.694117    60.919061
[...]
  CGR           2          0          1   1.347E-02
  CGR           3          0          1   3.545E-03
  CGR           4          0          1   8.161E-04
  CGR           5          0          1   1.199E-04
  CGR           6          0          1   2.257E-05
  CGR           7          0          1   4.116E-06
  CGR           8          1          0   9.690E-07

    CGRSolver converged.

  ==> DFCorrGrad: Density-Fitted Correlated Gradients <==

    OpenMP threads:              1
    Integrals threads:           1
    Memory (MB):               715
    Schwarz Cutoff:          0E+00
    Fitting Condition:       1E-12

   => Auxiliary Basis Set <=

  Basis Set: (AUG-CC-PVTZ AUX)
    Blend: AUG-CC-PVTZ-JKFIT
    Number of shells: 260
    Number of basis function: 876
    Number of Cartesian functions: 1074
    Spherical Harmonics?: true
    Max angular momentum: 4

	-----------------------------------------------------------
	 ==================> DF-MP2 Energies <==================== 
	-----------------------------------------------------------
	 Reference Energy          =    -157.3526719118547987 [Eh]
	 Singles Energy            =      -0.0000000000000000 [Eh]
	 Same-Spin Energy          =      -0.1654397379693084 [Eh]
	 Opposite-Spin Energy      =      -0.6397082682238623 [Eh]
	 Correlation Energy        =      -0.8051480061931706 [Eh]
	 Total Energy              =    -158.1578199180479771 [Eh]
	-----------------------------------------------------------
	 ================> DF-SCS-MP2 Energies <================== 
	-----------------------------------------------------------
	 SCS Same-Spin Scale       =       0.3333333333333333 [-]
	 SCS Opposite-Spin Scale   =       1.2000000000000000 [-]
	 SCS Same-Spin Energy      =      -0.0551465793231028 [Eh]
	 SCS Opposite-Spin Energy  =      -0.7676499218686347 [Eh]
	 SCS Correlation Energy    =      -0.8227965011917375 [Eh]
	 SCS Total Energy          =    -158.1754684130465307 [Eh]
	-----------------------------------------------------------


  -Total Gradient:
     Atom            X                  Y                   Z
    ------   -----------------  -----------------  -----------------
       1        0.000006291456    -0.000000785232     0.000003317653
       2       -0.000009251139    -0.000001016896    -0.000008031813
       3       -0.000014658633    -0.000002649332     0.000002011502
       4        0.000028184396     0.000018266660    -0.000025249425
       5       -0.000009616796     0.000006802764     0.000018636306
       6        0.000015605801    -0.000008215075     0.000002420224
       7        0.000571666239     0.000347724110    -0.002151697982
       8       -0.000023176374    -0.000003863929     0.000003023672
       9        0.000000697355    -0.000012720063     0.000027505365
      10       -0.000732413630    -0.001264509131     0.002736126917
      11        0.000014300223     0.000012521352     0.000005899521
      12       -0.000000270914     0.000025357547     0.000006072371
      13        0.000245039903    -0.002957034375    -0.000977634069
      14       -0.000092397892     0.003840121598     0.000357599758


*** tstop() called on gpu-1-10.local at Wed Jun 14 15:01:06 2017
Module time:
	user time   =     278.39 seconds =       4.64 minutes
	system time =       2.90 seconds =       0.05 minutes
	total time  =        281 seconds =       4.68 minutes
Total time:
	user time   =    1718.70 seconds =      28.64 minutes
	system time =      18.41 seconds =       0.31 minutes
	total time  =       1738 seconds =      28.97 minutes

			-----------------------------------------
			 OPTKING 2.0: for geometry optimizations 
			  - R.A. King,  Bethel University        
			-----------------------------------------

	Previous internal coordinate definitions found.
	---Fragment 1 Geometry and Gradient---
	 H          -4.4419505976        0.1158312471        0.6289218242
	 H          -4.1725171223        3.1936947639       -0.6032120636
	 H          -3.6332711842        0.5601882372       -2.5623469978
	 C          -3.3681488838        1.3034828446       -0.6623980751
	 H           0.4500836664        2.5558304087       -1.2322890220
	 H          -0.3508528546        2.0854658377        1.9379045777
	 C          -0.5899739211        1.3122107201        0.0406329129
	 H          -0.4892374197       -2.5848756856        1.1306935039
	 H           0.3852068243       -2.0101102040       -1.9938173414
	 C           0.5855557632       -1.3012587072       -0.0691455383
	 H           4.1972861732        0.5612063275        0.4959221175
	 H           4.4657526216       -2.5998174972       -0.4727785935
	 H           3.6164448112       -1.9257251725        2.6380848140
	 C           3.3703040614       -1.3103773760        0.6936752638
	             0.0000062915       -0.0000007852        0.0000033177
	            -0.0000092511       -0.0000010169       -0.0000080318
	            -0.0000146586       -0.0000026493        0.0000020115
	             0.0000281844        0.0000182667       -0.0000252494
	            -0.0000096168        0.0000068028        0.0000186363
	             0.0000156058       -0.0000082151        0.0000024202
	             0.0005716662        0.0003477241       -0.0021516980
	            -0.0000231764       -0.0000038639        0.0000030237
	             0.0000006974       -0.0000127201        0.0000275054
	            -0.0007324136       -0.0012645091        0.0027361269
	             0.0000143002        0.0000125214        0.0000058995
	            -0.0000002709        0.0000253575        0.0000060724
	             0.0002450399       -0.0029570344       -0.0009776341
	            -0.0000923979        0.0038401216        0.0003575998

	---Fragment 1 Intrafragment Coordinates---
	 - Coordinate -           - BOHR/RAD -       - ANG/DEG -
	 R(1,4)           =         2.056957	       1.088495
	 R(2,4)           =         2.055094	       1.087509
	 R(3,4)           =         2.057324	       1.088689
	 R(4,7)           =         2.865761	       1.516495
	 R(5,7)           =         2.061223	       1.090752
	 R(6,7)           =         2.062703	       1.091535
	 R(7,10)          =         2.867777	       1.517562
	 R(8,10)          =         2.059725	       1.089959
	 R(9,10)          =         2.060818	       1.090538
	 R(10,14)         =         2.887352	       1.527921
	 R(11,14)         =         2.055683	       1.087820
	 R(12,14)         =         2.055062	       1.087492
	 R(13,14)         =         2.054256	       1.087065
	 B(1,4,2)         =         1.884574	     107.978108
	 B(1,4,3)         =         1.879561	     107.690939
	 B(1,4,7)         =         1.932459	     110.721736
	 B(2,4,3)         =         1.884373	     107.966610
	 B(2,4,7)         =         1.949346	     111.689309
	 B(3,4,7)         =         1.931128	     110.645468
	 B(4,7,5)         =         1.917181	     109.846369
	 B(4,7,6)         =         1.916831	     109.826355
	 B(4,7,10)        =         1.966238	     112.657111
	 B(5,7,6)         =         1.858089	     106.460630
	 B(5,7,10)        =         1.895855	     108.624495
	 B(6,7,10)        =         1.906382	     109.227655
	 B(7,10,8)        =         1.908943	     109.374356
	 B(7,10,9)        =         1.885321	     108.020928
	 B(7,10,14)       =         1.969374	     112.836832
	 B(8,10,9)        =         1.853498	     106.197613
	 B(8,10,14)       =         1.925597	     110.328588
	 B(9,10,14)       =         1.917094	     109.841376
	 B(10,14,11)      =         1.938748	     111.082068
	 B(10,14,12)      =         1.945645	     111.477253
	 B(10,14,13)      =         1.946121	     111.504534
	 B(11,14,12)      =         1.877808	     107.590478
	 B(11,14,13)      =         1.891857	     108.395429
	 B(12,14,13)      =         1.860251	     106.584522
	 D(1,4,7,5)       =        -3.110517	    -178.219510
	 D(1,4,7,6)       =        -1.072549	     -61.452523
	 D(1,4,7,10)      =         1.056671	      60.542767
	 D(2,4,7,5)       =        -1.009634	     -57.847784
	 D(2,4,7,6)       =         1.028334	      58.919203
	 D(2,4,7,10)      =        -3.125632	    -179.085507
	 D(3,4,7,5)       =         1.090087	      62.457366
	 D(3,4,7,6)       =         3.128055	     179.224352
	 D(3,4,7,10)      =        -1.025911	     -58.780358
	 D(4,7,10,8)      =        -0.969279	     -55.535591
	 D(4,7,10,9)      =         1.040867	      59.637290
	 D(4,7,10,14)     =        -3.119648	    -178.742643
	 D(5,7,10,8)      =        -3.097380	    -177.466774
	 D(5,7,10,9)      =        -1.087234	     -62.293893
	 D(5,7,10,14)     =         1.035437	      59.326174
	 D(6,7,10,8)      =         1.165834	      66.797342
	 D(6,7,10,9)      =        -3.107206	    -178.029778
	 D(6,7,10,14)     =        -0.984535	     -56.409711
	 D(7,10,14,11)    =        -0.373222	     -21.384073
	 D(7,10,14,12)    =        -2.467315	    -141.366734
	 D(7,10,14,13)    =         1.739056	      99.640590
	 D(8,10,14,11)    =        -2.514311	    -144.059420
	 D(8,10,14,12)    =         1.674782	      95.957920
	 D(8,10,14,13)    =        -0.402032	     -23.034757
	 D(9,10,14,11)    =         1.731384	      99.200985
	 D(9,10,14,12)    =        -0.362709	     -20.781675
	 D(9,10,14,13)    =        -2.439523	    -139.774352

	Current energy   :      -158.1578199180

	Energy change for the previous step:
		Projected    :        -0.0000050999
		Actual       :        -0.0000000226

	Performing BFGS update.
	Previous computed or guess Hessian on step 1.
	Steps to be used in Hessian update: 5 4
	Adding user-defined constraint: Fragment 1; Coordinate 58:
		Value =     1.739056; Fixed value    =     1.745330
		Force =     0.003921; Force constant =     0.625000
	Removing off-diagonal coupling between coordinate 58 and others.
	Taking RFO optimization step.
	Going to follow RFO solution 1.
	Using RFO vector 1.
	Norm of target step-size    0.02173
	Projected energy change by RFO approximation:         0.0000018829

	Back-transformation to cartesian coordinates...
	Successfully converged to displaced geometry.

	--- Internal Coordinate Step in ANG or DEG, aJ/ANG or AJ/DEG ---
	 ---------------------------------------------------------------------------
	   Coordinate                Previous        Force       Change         New 
	   ----------                --------       ------       ------       ------
	    1 R(1,4)          =      1.088495     0.000006     0.000181     1.088676
	    2 R(2,4)          =      1.087509    -0.000020     0.000095     1.087604
	    3 R(3,4)          =      1.088689    -0.000008     0.000157     1.088846
	    4 R(4,7)          =      1.516495     0.000028    -0.000112     1.516384
	    5 R(5,7)          =      1.090752     0.000101     0.000054     1.090806
	    6 R(6,7)          =      1.091535    -0.000008     0.000110     1.091646
	    7 R(7,10)         =      1.517562    -0.000037    -0.000074     1.517488
	    8 R(8,10)         =      1.089959    -0.000134     0.000198     1.090158
	    9 R(9,10)         =      1.090538     0.000176     0.000054     1.090592
	   10 R(10,14)        =      1.527921     0.000023     0.000026     1.527947
	   11 R(11,14)        =      1.087820    -0.000137     0.000153     1.087974
	   12 R(12,14)        =      1.087492     0.000161     0.000022     1.087514
	   13 R(13,14)        =      1.087065     0.000084     0.000113     1.087178
	   14 B(1,4,2)        =    107.978108     0.000000    -0.013959   107.964149
	   15 B(1,4,3)        =    107.690939     0.000000    -0.007723   107.683216
	   16 B(1,4,7)        =    110.721736     0.000001     0.027098   110.748835
	   17 B(2,4,3)        =    107.966610     0.000001    -0.001694   107.964916
	   18 B(2,4,7)        =    111.689309    -0.000001    -0.008433   111.680875
	   19 B(3,4,7)        =    110.645468    -0.000001     0.003639   110.649107
	   20 B(4,7,5)        =    109.846369     0.000001     0.017095   109.863464
	   21 B(4,7,6)        =    109.826355    -0.000001    -0.018214   109.808141
	   22 B(4,7,10)       =    112.657111    -0.000001    -0.015499   112.641612
	   23 B(5,7,6)        =    106.460630     0.000000     0.012333   106.472964
	   24 B(5,7,10)       =    108.624495    -0.000001     0.022235   108.646730
	   25 B(6,7,10)       =    109.227655     0.000001    -0.016101   109.211554
	   26 B(7,10,8)       =    109.374356     0.000003    -0.034571   109.339786
	   27 B(7,10,9)       =    108.020928    -0.000003     0.028036   108.048965
	   28 B(7,10,14)      =    112.836832     0.000001     0.008081   112.844913
	   29 B(8,10,9)       =    106.197613     0.000001     0.010529   106.208142
	   30 B(8,10,14)      =    110.328588    -0.000002    -0.042553   110.286035
	   31 B(9,10,14)      =    109.841376     0.000001     0.032026   109.873401
	   32 B(10,14,11)     =    111.082068     0.000000     0.006293   111.088360
	   33 B(10,14,12)     =    111.477253    -0.000002    -0.002975   111.474278
	   34 B(10,14,13)     =    111.504534     0.000001     0.016194   111.520728
	   35 B(11,14,12)     =    107.590478     0.000001    -0.005278   107.585200
	   36 B(11,14,13)     =    108.395429     0.000002    -0.036174   108.359255
	   37 B(12,14,13)     =    106.584522    -0.000002     0.020749   106.605271
	   38 D(1,4,7,5)      =   -178.219510    -0.000000    -0.206256  -178.425765
	   39 D(1,4,7,6)      =    -61.452523    -0.000000    -0.191948   -61.644471
	   40 D(1,4,7,10)     =     60.542767     0.000000    -0.236268    60.306499
	   41 D(2,4,7,5)      =    -57.847784    -0.000000    -0.211129   -58.058912
	   42 D(2,4,7,6)      =     58.919203    -0.000000    -0.196821    58.722382
	   43 D(2,4,7,10)     =   -179.085507     0.000000    -0.241141  -179.326648
	   44 D(3,4,7,5)      =     62.457366    -0.000000    -0.216439    62.240927
	   45 D(3,4,7,6)      =    179.224352    -0.000000    -0.202131   179.022222
	   46 D(3,4,7,10)     =    -58.780358    -0.000000    -0.246451   -59.026808
	   47 D(4,7,10,8)     =    -55.535591     0.000000     0.331569   -55.204021
	   48 D(4,7,10,9)     =     59.637290     0.000000     0.341051    59.978341
	   49 D(4,7,10,14)    =   -178.742643     0.000000     0.406120  -178.336523
	   50 D(5,7,10,8)     =   -177.466774     0.000000     0.304484  -177.162290
	   51 D(5,7,10,9)     =    -62.293893     0.000000     0.313966   -61.979928
	   52 D(5,7,10,14)    =     59.326174     0.000000     0.379034    59.705208
	   53 D(6,7,10,8)     =     66.797342    -0.000000     0.286322    67.083664
	   54 D(6,7,10,9)     =   -178.029778     0.000000     0.295804  -177.733974
	   55 D(6,7,10,14)    =    -56.409711    -0.000000     0.360872   -56.048838
	   56 D(7,10,14,11)   =    -21.384073     0.000000     0.055824   -21.328249
	   57 D(7,10,14,12)   =   -141.366734     0.000000     0.060255  -141.306479
	   58 D(7,10,14,13)   =     99.640590     0.000001     0.025156    99.665746
	   59 D(8,10,14,11)   =   -144.059420    -0.000000     0.126278  -143.933142
	   60 D(8,10,14,12)   =     95.957920    -0.000000     0.130708    96.088628
	   61 D(8,10,14,13)   =    -23.034757     0.000001     0.095610   -22.939147
	   62 D(9,10,14,11)   =     99.200985    -0.000000     0.119487    99.320472
	   63 D(9,10,14,12)   =    -20.781675    -0.000000     0.123917   -20.657758
	   64 D(9,10,14,13)   =   -139.774352     0.000001     0.088819  -139.685533
	 ---------------------------------------------------------------------------
	Successfully symmetrized geometry.
	 Forces used to impose fixed constraints are not included.
	  Forces zeroed: 58 

  ==> Convergence Check <==

  Measures of convergence in internal coordinates in au.
  Criteria marked as inactive (o), active & met (*), and active & unmet ( ).
  ---------------------------------------------------------------------------------------------
   Step     Total Energy     Delta E     MAX Force     RMS Force      MAX Disp      RMS Disp   
  ---------------------------------------------------------------------------------------------
    Convergence Criteria    1.00e-06 *    3.00e-04 *             o    1.20e-03 *             o
  ---------------------------------------------------------------------------------------------
      6    -158.15781992   -2.26e-08 *    4.21e-05 *    1.60e-05 o    7.09e-03      2.72e-03 o  ~
  ---------------------------------------------------------------------------------------------


  **** Optimization is complete! (in 6 steps) ****

  ==> Optimization Summary <==

  Measures of convergence in internal coordinates in au.
  --------------------------------------------------------------------------------------------------------------- ~
   Step         Total Energy             Delta E       MAX Force       RMS Force        MAX Disp        RMS Disp  ~
  --------------------------------------------------------------------------------------------------------------- ~
      1    -158.153385574850   -158.153385574850      0.01320985      0.00566357      0.02682543      0.01250701  ~
      2    -158.156470003977     -0.003084429128      0.00507884      0.00234228      0.03105960      0.01252595  ~
      3    -158.157541280686     -0.001071276708      0.00174393      0.00067874      0.04401090      0.01252088  ~
      4    -158.157797743067     -0.000256462381      0.00095505      0.00019074      0.02856535      0.00889799  ~
      5    -158.157819895473     -0.000022152406      0.00014702      0.00004477      0.00527862      0.00210083  ~
      6    -158.157819918048     -0.000000022575      0.00007658      0.00001866      0.00708813      0.00271619  ~
  --------------------------------------------------------------------------------------------------------------- ~

	Writing optimization data to binary file.
	Final energy is   -158.1578199180480
	Final (previous) structure:
	Cartesian Geometry (in Angstrom)
	    H    -2.3505790179   0.0612952560   0.3328110953
	    H    -2.2080009636   1.6900304802  -0.3192060760
	    H    -1.9226443033   0.2964388476  -1.3559356318
	    C    -1.7823476244   0.6897734131  -0.3505259644
	    H     0.2381740182   1.3524872013  -0.6520992648
	    H    -0.1856633342   1.1035809906   1.0254949349
	    C    -0.3122007527   0.6943920060   0.0215020114
	    H    -0.2588932921  -1.3678572998   0.5983372322
	    H     0.2038426720  -1.0637045067  -1.0550826952
	    C     0.3098627642  -0.6885964503  -0.0365902429
	    H     2.2211081808   0.2969775978   0.2624306818
	    H     2.3631745065  -1.3757641660  -0.2501836564
	    H     1.9137401702  -1.0190498713   1.3960143579
	    C     1.7834880953  -0.6934218420   0.3670771398
	Saving final (previous) structure.
			--------------------------
			 OPTKING Finished Execution 
			--------------------------

    Final optimized geometry and variables:
    Molecular point group: c1
    Full point group: C1

    Geometry (in Angstrom), charge = 0, multiplicity = 1:

    H           -2.350579017946     0.061295256019     0.332811095330
    H           -2.208000963581     1.690030480236    -0.319206075979
    H           -1.922644303314     0.296438847631    -1.355935631758
    C           -1.782347624438     0.689773413128    -0.350525964380
    H            0.238174018214     1.352487201310    -0.652099264836
    H           -0.185663334211     1.103580990578     1.025494934933
    C           -0.312200752711     0.694392005968     0.021502011409
    H           -0.258893292108    -1.367857299840     0.598337232169
    H            0.203842672005    -1.063704506703    -1.055082695164
    C            0.309862764249    -0.688596450328    -0.036590242942
    H            2.221108180768     0.296977597804     0.262430681801
    H            2.363174506545    -1.375764166025    -0.250183656376
    H            1.913740170207    -1.019049871276     1.396014357884
    C            1.783488095329    -0.693421842028     0.367077139780

	Cleaning optimization helper files.

*** Psi4 exiting successfully. Buy a developer a beer!
