
    -----------------------------------------------------------------------
          Psi4: An Open-Source Ab Initio Electronic Structure Package
                               Psi4 1.1 release

                         Git: Rev {HEAD} add49b9 


    R. M. Parrish, L. A. Burns, D. G. A. Smith, A. C. Simmonett,
    A. E. DePrince III, E. G. Hohenstein, U. Bozkaya, A. Yu. Sokolov,
    R. Di Remigio, R. M. Richard, J. F. Gonthier, A. M. James,
    H. R. McAlexander, A. Kumar, M. Saitow, X. Wang, B. P. Pritchard,
    P. Verma, H. F. Schaefer III, K. Patkowski, R. A. King, E. F. Valeev,
    F. A. Evangelista, J. M. Turney, T. D. Crawford, and C. D. Sherrill,
    J. Chem. Theory Comput. in press (2017).
    (doi: 10.1021/acs.jctc.7b00174)

    -----------------------------------------------------------------------


    Psi4 started on: Wednesday, 14 June 2017 02:53PM

    Process ID:  32103
    PSIDATADIR: /cbio/jclab/home/chayas/anaconda/envs/py35/share/psi4
    Memory:     500.0 MiB
    Threads:    1
    
  ==> Input File <==

--------------------------------------------------------------------------

memory 1000 mb

molecule butane {
  symmetry C1
  0 1 
  H      1.604   0.760   -8.260
  H      1.745   2.388   -8.880
  H      2.043   1.024   -9.930
  C      2.142   1.395   -8.932
  H      4.169   2.051   -9.210
  H      3.731   1.788   -7.539
  C      3.631   1.416   -8.537
  H      3.665   -0.647   -7.940
  H      4.104   -0.384   -9.610
  C      4.203   -0.012   -8.612
  H      5.791   0.381   -7.220
  H      6.229   0.644   -8.890
  H      6.089   -0.983   -8.270
  C      5.691   0.009   -8.218
  units Angstrom
}

dih_string = "7 10 14 13 180.001"
set optking fixed_dihedral = $dih_string

optimize('MP2/aug-cc-pvtz')
--------------------------------------------------------------------------

  Memory set to 953.674 MiB by Python driver.
gradient() will perform analytic gradient computation.

*** tstart() called on cpu-6-2.local
*** at Wed Jun 14 14:53:05 2017

    SCF Algorithm Type (re)set to DF.

*** tstart() called on cpu-6-2.local
*** at Wed Jun 14 14:53:05 2017

   => Loading Basis Set <=

    Name: AUG-CC-PVTZ
    Role: ORBITAL
    Keyword: BASIS
    atoms 1-3, 5-6, 8-9, 11-13 entry H          line    34 file /cbio/jclab/home/chayas/anaconda/envs/py35/share/psi4/basis/aug-cc-pvtz.gbs 
    atoms 4, 7, 10, 14         entry C          line   221 file /cbio/jclab/home/chayas/anaconda/envs/py35/share/psi4/basis/aug-cc-pvtz.gbs 


         ---------------------------------------------------------
                                   SCF
            by Justin Turney, Rob Parrish, and Andy Simmonett
                              RHF Reference
                        1 Threads,    953 MiB Core
         ---------------------------------------------------------

  ==> Geometry <==

    Molecular point group: c1
    Full point group: C1

    Geometry (in Angstrom), charge = 0, multiplicity = 1:

       Center              X                  Y                   Z               Mass       
    ------------   -----------------  -----------------  -----------------  -----------------
           H         -2.312793382205     0.057965294236     0.314776029323     1.007825032070
           H         -2.171793382205     1.685965294236    -0.305223970677     1.007825032070
           H         -1.873793382205     0.321965294236    -1.355223970677     1.007825032070
           C         -1.774793382205     0.692965294236    -0.357223970677    12.000000000000
           H          0.252206617795     1.348965294236    -0.635223970677     1.007825032070
           H         -0.185793382205     1.085965294236     1.035776029323     1.007825032070
           C         -0.285793382205     0.713965294236     0.037776029323    12.000000000000
           H         -0.251793382205    -1.349034705764     0.634776029323     1.007825032070
           H          0.187206617795    -1.086034705764    -1.035223970677     1.007825032070
           C          0.286206617795    -0.714034705764    -0.037223970677    12.000000000000
           H          1.874206617795    -0.321034705764     1.354776029323     1.007825032070
           H          2.312206617795    -0.058034705764    -0.315223970677     1.007825032070
           H          2.172206617795    -1.685034705764     0.304776029323     1.007825032070
           C          1.774206617795    -0.693034705764     0.356776029323    12.000000000000

  Running in c1 symmetry.

  Rotational constants: A =      0.76955  B =      0.12464  C =      0.11638 [cm^-1]
  Rotational constants: A =  23070.39987  B =   3736.69803  C =   3488.91793 [MHz]
  Nuclear repulsion =  131.820745551771807

  Charge       = 0
  Multiplicity = 1
  Electrons    = 34
  Nalpha       = 17
  Nbeta        = 17

  ==> Algorithm <==

  SCF Algorithm Type is DF.
  DIIS enabled.
  MOM disabled.
  Fractional occupation disabled.
  Guess Type is SAD.
  Energy threshold   = 1.00e-10
  Density threshold  = 1.00e-10
  Integral threshold = 0.00e+00

  ==> Primary Basis <==

  Basis Set: AUG-CC-PVTZ
    Blend: AUG-CC-PVTZ
    Number of shells: 146
    Number of basis function: 414
    Number of Cartesian functions: 470
    Spherical Harmonics?: true
    Max angular momentum: 3

   => Loading Basis Set <=

    Name: (AUG-CC-PVTZ AUX)
    Role: JKFIT
    Keyword: DF_BASIS_SCF
    atoms 1-3, 5-6, 8-9, 11-13 entry H          line    69 file /cbio/jclab/home/chayas/anaconda/envs/py35/share/psi4/basis/aug-cc-pvtz-jkfit.gbs 
    atoms 4, 7, 10, 14         entry C          line   161 file /cbio/jclab/home/chayas/anaconda/envs/py35/share/psi4/basis/aug-cc-pvtz-jkfit.gbs 

  ==> Pre-Iterations <==

   -------------------------------------------------------
    Irrep   Nso     Nmo     Nalpha   Nbeta   Ndocc  Nsocc
   -------------------------------------------------------
     A        414     414       0       0       0       0
   -------------------------------------------------------
    Total     414     414      17      17      17       0
   -------------------------------------------------------

  ==> Integral Setup <==

  ==> DFJK: Density-Fitted J/K Matrices <==

    J tasked:                  Yes
    K tasked:                  Yes
    wK tasked:                  No
    OpenMP threads:              1
    Integrals threads:           1
    Memory (MB):               715
    Algorithm:                Core
    Integral Cache:           NONE
    Schwarz Cutoff:          1E-12
    Fitting Condition:       1E-12

   => Auxiliary Basis Set <=

  Basis Set: (AUG-CC-PVTZ AUX)
    Blend: AUG-CC-PVTZ-JKFIT
    Number of shells: 260
    Number of basis function: 876
    Number of Cartesian functions: 1074
    Spherical Harmonics?: true
    Max angular momentum: 4

  Minimum eigenvalue in the overlap matrix is 7.7041686285E-06.
  Using Symmetric Orthogonalization.

  SCF Guess: Superposition of Atomic Densities via on-the-fly atomic UHF.

  ==> Iterations <==

                           Total Energy        Delta E     RMS |[F,P]|

   @DF-RHF iter   0:  -158.77606278134749   -1.58776e+02   9.13333e-03 
   @DF-RHF iter   1:  -157.21410273656457    1.56196e+00   1.11557e-03 
   @DF-RHF iter   2:  -157.33197174731447   -1.17869e-01   4.30758e-04 DIIS
   @DF-RHF iter   3:  -157.35027311353701   -1.83014e-02   1.24841e-04 DIIS
   @DF-RHF iter   4:  -157.35272820976155   -2.45510e-03   2.19880e-05 DIIS
   @DF-RHF iter   5:  -157.35280919211311   -8.09824e-05   7.22220e-06 DIIS
   @DF-RHF iter   6:  -157.35281722806295   -8.03595e-06   1.39570e-06 DIIS
   @DF-RHF iter   7:  -157.35281764186178   -4.13799e-07   2.28293e-07 DIIS
   @DF-RHF iter   8:  -157.35281765440180   -1.25400e-08   3.80169e-08 DIIS
   @DF-RHF iter   9:  -157.35281765471021   -3.08404e-10   8.44059e-09 DIIS
   @DF-RHF iter  10:  -157.35281765472874   -1.85310e-11   1.60680e-09 DIIS
   @DF-RHF iter  11:  -157.35281765472737    1.36424e-12   2.79428e-10 DIIS
   @DF-RHF iter  12:  -157.35281765472772   -3.41061e-13   9.39505e-11 DIIS

  ==> Post-Iterations <==

    Orbital Energies (a.u.)
    -----------------------

    Doubly Occupied:                                                      

       1A    -11.207103     2A    -11.206488     3A    -11.198789  
       4A    -11.198660     5A     -1.070686     6A     -0.981229  
       7A     -0.861662     8A     -0.794830     9A     -0.647670  
      10A     -0.587633    11A     -0.575124    12A     -0.570535  
      13A     -0.514744    14A     -0.503473    15A     -0.476314  
      16A     -0.468536    17A     -0.441830  

    Virtual:                                                              

      18A      0.032262    19A      0.036998    20A      0.039683  
      21A      0.040947    22A      0.056464    23A      0.058496  
      24A      0.059614    25A      0.061200    26A      0.081927  
      27A      0.085898    28A      0.095902    29A      0.112328  
      30A      0.123360    31A      0.130755    32A      0.135485  
      33A      0.142009    34A      0.143857    35A      0.147018  
      36A      0.148460    37A      0.158856    38A      0.159782  
      39A      0.168093    40A      0.170350    41A      0.202245  
      42A      0.209027    43A      0.212566    44A      0.230045  
      45A      0.249619    46A      0.251444    47A      0.251937  
      48A      0.270430    49A      0.274799    50A      0.281569  
      51A      0.282091    52A      0.315988    53A      0.319119  
      54A      0.332552    55A      0.337908    56A      0.339464  
      57A      0.347398    58A      0.357265    59A      0.358337  
      60A      0.359627    61A      0.373970    62A      0.374166  
      63A      0.384470    64A      0.390568    65A      0.391118  
      66A      0.391624    67A      0.395158    68A      0.402725  
      69A      0.409429    70A      0.414817    71A      0.424848  
      72A      0.430984    73A      0.443146    74A      0.450034  
      75A      0.459447    76A      0.462172    77A      0.463292  
      78A      0.471963    79A      0.477027    80A      0.477694  
      81A      0.480902    82A      0.491313    83A      0.498746  
      84A      0.508254    85A      0.508355    86A      0.509838  
      87A      0.522137    88A      0.523930    89A      0.526804  
      90A      0.537986    91A      0.546512    92A      0.562312  
      93A      0.564526    94A      0.578339    95A      0.585496  
      96A      0.597706    97A      0.598331    98A      0.616953  
      99A      0.623348   100A      0.640237   101A      0.642632  
     102A      0.650263   103A      0.688290   104A      0.694312  
     105A      0.703229   106A      0.703265   107A      0.764545  
     108A      0.776301   109A      0.798167   110A      0.818904  
     111A      0.823620   112A      0.824954   113A      0.840979  
     114A      0.843602   115A      0.844096   116A      0.854478  
     117A      0.861198   118A      0.865415   119A      0.888000  
     120A      0.891232   121A      0.895288   122A      0.904850  
     123A      0.916796   124A      0.918542   125A      0.922961  
     126A      0.934498   127A      0.939890   128A      0.948420  
     129A      0.956672   130A      0.958136   131A      0.964024  
     132A      0.965829   133A      0.987074   134A      0.997100  
     135A      0.998059   136A      1.003586   137A      1.009895  
     138A      1.028120   139A      1.046816   140A      1.049518  
     141A      1.073293   142A      1.081305   143A      1.098291  
     144A      1.102809   145A      1.110584   146A      1.125733  
     147A      1.133448   148A      1.134054   149A      1.135375  
     150A      1.161621   151A      1.163837   152A      1.171260  
     153A      1.180336   154A      1.196299   155A      1.207836  
     156A      1.208674   157A      1.228992   158A      1.251437  
     159A      1.253143   160A      1.260954   161A      1.264155  
     162A      1.268488   163A      1.278539   164A      1.281846  
     165A      1.284306   166A      1.297219   167A      1.316467  
     168A      1.326322   169A      1.348297   170A      1.359758  
     171A      1.361040   172A      1.367770   173A      1.385395  
     174A      1.427067   175A      1.431929   176A      1.438314  
     177A      1.467011   178A      1.483427   179A      1.497626  
     180A      1.510760   181A      1.534180   182A      1.537051  
     183A      1.546782   184A      1.554716   185A      1.579142  
     186A      1.581351   187A      1.602480   188A      1.608511  
     189A      1.618020   190A      1.647510   191A      1.648311  
     192A      1.652145   193A      1.684517   194A      1.686835  
     195A      1.701418   196A      1.703765   197A      1.705347  
     198A      1.713659   199A      1.731448   200A      1.746287  
     201A      1.755298   202A      1.756479   203A      1.758662  
     204A      1.771980   205A      1.777967   206A      1.787032  
     207A      1.794479   208A      1.795225   209A      1.832254  
     210A      1.856685   211A      1.864069   212A      1.880881  
     213A      1.881332   214A      1.897233   215A      1.917895  
     216A      1.920757   217A      1.971416   218A      1.976414  
     219A      1.983745   220A      1.986461   221A      1.990736  
     222A      1.991799   223A      2.029799   224A      2.055543  
     225A      2.063351   226A      2.077186   227A      2.100615  
     228A      2.105677   229A      2.155348   230A      2.157450  
     231A      2.173747   232A      2.178657   233A      2.191037  
     234A      2.206172   235A      2.243745   236A      2.254832  
     237A      2.265414   238A      2.296539   239A      2.310792  
     240A      2.327295   241A      2.330593   242A      2.338956  
     243A      2.340106   244A      2.349751   245A      2.381562  
     246A      2.404158   247A      2.433917   248A      2.460922  
     249A      2.469776   250A      2.478417   251A      2.498484  
     252A      2.544348   253A      2.611069   254A      2.611505  
     255A      2.657752   256A      2.683646   257A      2.685046  
     258A      2.883198   259A      2.892172   260A      3.005116  
     261A      3.232475   262A      3.255178   263A      3.264466  
     264A      3.380348   265A      3.417137   266A      3.419335  
     267A      3.455251   268A      3.465697   269A      3.478435  
     270A      3.486259   271A      3.518458   272A      3.534708  
     273A      3.557110   274A      3.571073   275A      3.596007  
     276A      3.597286   277A      3.621144   278A      3.675176  
     279A      3.690957   280A      3.694770   281A      3.722152  
     282A      3.723435   283A      3.727327   284A      3.737121  
     285A      3.754844   286A      3.756984   287A      3.793741  
     288A      3.798329   289A      3.809353   290A      3.813319  
     291A      3.839404   292A      3.871911   293A      3.877061  
     294A      3.885761   295A      3.903933   296A      3.911869  
     297A      3.931196   298A      3.949886   299A      3.951991  
     300A      4.000729   301A      4.013611   302A      4.014162  
     303A      4.020985   304A      4.026027   305A      4.043628  
     306A      4.055081   307A      4.058110   308A      4.076368  
     309A      4.150610   310A      4.167885   311A      4.211274  
     312A      4.218408   313A      4.231218   314A      4.253595  
     315A      4.254547   316A      4.273830   317A      4.278183  
     318A      4.289000   319A      4.309637   320A      4.316305  
     321A      4.356879   322A      4.361057   323A      4.371792  
     324A      4.404033   325A      4.428859   326A      4.433713  
     327A      4.546563   328A      4.557937   329A      4.581531  
     330A      4.586054   331A      4.639085   332A      4.664351  
     333A      4.693530   334A      4.704232   335A      4.743738  
     336A      4.743869   337A      4.749807   338A      4.751148  
     339A      4.760669   340A      4.804014   341A      4.820705  
     342A      4.862830   343A      4.870545   344A      4.882594  
     345A      4.884290   346A      4.901169   347A      4.918247  
     348A      4.954179   349A      4.975190   350A      4.992701  
     351A      5.051534   352A      5.051784   353A      5.080880  
     354A      5.102313   355A      5.126970   356A      5.185918  
     357A      5.194499   358A      5.218589   359A      5.243664  
     360A      5.243881   361A      5.249376   362A      5.268185  
     363A      5.277332   364A      5.282721   365A      5.288876  
     366A      5.402327   367A      5.407440   368A      5.412983  
     369A      5.428354   370A      5.439350   371A      5.450236  
     372A      5.459574   373A      5.465673   374A      5.508255  
     375A      5.565246   376A      5.600002   377A      5.624204  
     378A      5.634856   379A      5.688172   380A      5.689736  
     381A      5.697570   382A      5.743956   383A      5.771973  
     384A      5.804821   385A      5.828764   386A      5.891616  
     387A      5.902410   388A      5.924776   389A      5.949339  
     390A      6.035417   391A      6.092457   392A      6.150535  
     393A      6.163727   394A      6.171278   395A      6.255971  
     396A      6.264319   397A      6.283869   398A      6.302796  
     399A      6.310181   400A      6.364542   401A      6.393692  
     402A      6.446890   403A      6.547473   404A      6.556748  
     405A      6.754361   406A      6.782950   407A      6.822127  
     408A      6.839151   409A      6.865442   410A      6.984081  
     411A     17.988660   412A     18.319583   413A     18.439055  
     414A     18.888045  

    Final Occupation by Irrep:
              A 
    DOCC [    17 ]

  Energy converged.

  @DF-RHF Final Energy:  -157.35281765472772

   => Energetics <=

    Nuclear Repulsion Energy =            131.8207455517718074
    One-Electron Energy =                -471.7365172414389463
    Two-Electron Energy =                 182.5629540349394517
    DFT Exchange-Correlation Energy =       0.0000000000000000
    Empirical Dispersion Energy =           0.0000000000000000
    PCM Polarization Energy =               0.0000000000000000
    EFP Energy =                            0.0000000000000000
    Total Energy =                       -157.3528176547277155



Properties will be evaluated at   0.000000,   0.000000,   0.000000 Bohr

Properties computed using the SCF density matrix

  Nuclear Dipole Moment: (a.u.)
     X:     0.0019      Y:     0.0015      Z:    -0.0012

  Electronic Dipole Moment: (a.u.)
     X:    -0.0018      Y:    -0.0019      Z:     0.0010

  Dipole Moment: (a.u.)
     X:     0.0001      Y:    -0.0004      Z:    -0.0002     Total:     0.0004

  Dipole Moment: (Debye)
     X:     0.0003      Y:    -0.0010      Z:    -0.0005     Total:     0.0011


*** tstop() called on cpu-6-2.local at Wed Jun 14 14:54:10 2017
Module time:
	user time   =      64.47 seconds =       1.07 minutes
	system time =       0.48 seconds =       0.01 minutes
	total time  =         65 seconds =       1.08 minutes
Total time:
	user time   =      64.48 seconds =       1.07 minutes
	system time =       0.48 seconds =       0.01 minutes
	total time  =         65 seconds =       1.08 minutes

  //>>>>>>>>>>>>>>>>>>>>>>>>>>>>>>>>>>>//
  //               DFMP2               //
  //<<<<<<<<<<<<<<<<<<<<<<<<<<<<<<<<<<<//

   => Loading Basis Set <=

    Name: (AUG-CC-PVTZ AUX)
    Role: RIFIT
    Keyword: DF_BASIS_MP2
    atoms 1-3, 5-6, 8-9, 11-13 entry H          line    29 file /cbio/jclab/home/chayas/anaconda/envs/py35/share/psi4/basis/aug-cc-pvtz-ri.gbs 
    atoms 4, 7, 10, 14         entry C          line   147 file /cbio/jclab/home/chayas/anaconda/envs/py35/share/psi4/basis/aug-cc-pvtz-ri.gbs 

	 --------------------------------------------------------
	                          DF-MP2                         
	      2nd-Order Density-Fitted Moller-Plesset Theory     
	              RMP2 Wavefunction,   1 Threads             
	                                                         
	        Rob Parrish, Justin Turney, Andy Simmonett,      
	           Ed Hohenstein, and C. David Sherrill          
	 --------------------------------------------------------

   => Auxiliary Basis Set <=

  Basis Set: (AUG-CC-PVTZ AUX)
    Blend: AUG-CC-PVTZ-RI
    Number of shells: 252
    Number of basis function: 884
    Number of Cartesian functions: 1094
    Spherical Harmonics?: true
    Max angular momentum: 4

	 --------------------------------------------------------
	                 NBF =   414, NAUX =   884
	 --------------------------------------------------------
	   CLASS    FOCC     OCC    AOCC    AVIR     VIR    FVIR
	   PAIRS       0      17      17     397     397       0
	 --------------------------------------------------------


         ------------------------------------------------------------
                                     CPHF                           
                                  Rob Parrish                       
         ------------------------------------------------------------

  ==> Geometry <==

    Molecular point group: c1
    Full point group: C1

    Geometry (in Angstrom), charge = 0, multiplicity = 1:

       Center              X                  Y                   Z               Mass       
    ------------   -----------------  -----------------  -----------------  -----------------
           H         -2.312793382205     0.057965294236     0.314776029323     1.007825032070
           H         -2.171793382205     1.685965294236    -0.305223970677     1.007825032070
           H         -1.873793382205     0.321965294236    -1.355223970677     1.007825032070
           C         -1.774793382205     0.692965294236    -0.357223970677    12.000000000000
           H          0.252206617795     1.348965294236    -0.635223970677     1.007825032070
           H         -0.185793382205     1.085965294236     1.035776029323     1.007825032070
           C         -0.285793382205     0.713965294236     0.037776029323    12.000000000000
           H         -0.251793382205    -1.349034705764     0.634776029323     1.007825032070
           H          0.187206617795    -1.086034705764    -1.035223970677     1.007825032070
           C          0.286206617795    -0.714034705764    -0.037223970677    12.000000000000
           H          1.874206617795    -0.321034705764     1.354776029323     1.007825032070
           H          2.312206617795    -0.058034705764    -0.315223970677     1.007825032070
           H          2.172206617795    -1.685034705764     0.304776029323     1.007825032070
           C          1.774206617795    -0.693034705764     0.356776029323    12.000000000000

  Nuclear repulsion =  131.820745551771807
  Reference energy  = -157.352817654727716

  ==> Basis Set <==

  Basis Set: AUG-CC-PVTZ
    Blend: AUG-CC-PVTZ
    Number of shells: 146
    Number of basis function: 414
    Number of Cartesian functions: 470
    Spherical Harmonics?: true
    Max angular momentum: 3

  ==> CGRSolver (by Rob Parrish) <==

   Number of roots    =         1
   Preconditioning    =    JACOBI
   Convergence cutoff =     1E-06
   Maximum iterations =       100

  ==> CPHFRHamiltonian (by Rob Parrish) <== 

  ==> DFJK: Density-Fitted J/K Matrices <==

    J tasked:                  Yes
    K tasked:                  Yes
    wK tasked:                  No
    OpenMP threads:              1
    Integrals threads:           1
    Memory (MB):               715
    Algorithm:                Core
    Integral Cache:           NONE
    Schwarz Cutoff:          1E-12
    Fitting Condition:       1E-12

   => Auxiliary Basis Set <=

  Basis Set: (AUG-CC-PVTZ AUX)
    Blend: AUG-CC-PVTZ-JKFIT
    Number of shells: 260
    Number of basis function: 876
    Number of Cartesian functions: 1074
    Spherical Harmonics?: true
    Max angular momentum: 4

  ==> CPHF Iterations <==

  => Iterations <=

             Iter  Converged  Remaining    Residual
  CGR           1          0          1   8.153E-02
  CGR           2          0          1   1.302E-02
  CGR           3          0          1   3.410E-03
  CGR           4          0          1   8.037E-04
  CGR           5          0          1   1.177E-04
  CGR           6          0          1   2.093E-05
  CGR           7          0          1   3.605E-06
  CGR           8          1          0   7.897E-07

    CGRSolver converged.

  ==> DFCorrGrad: Density-Fitted Correlated Gradients <==

    OpenMP threads:              1
    Integrals threads:           1
    Memory (MB):               715
    Schwarz Cutoff:          0E+00
    Fitting Condition:       1E-12

   => Auxiliary Basis Set <=

  Basis Set: (AUG-CC-PVTZ AUX)
    Blend: AUG-CC-PVTZ-JKFIT
    Number of shells: 260
    Number of basis function: 876
    Number of Cartesian functions: 1074
    Spherical Harmonics?: true
    Max angular momentum: 4

	-----------------------------------------------------------
	 ==================> DF-MP2 Energies <==================== 
	-----------------------------------------------------------
	 Reference Energy          =    -157.3528176547277155 [Eh]
	 Singles Energy            =      -0.0000000000000000 [Eh]
	 Same-Spin Energy          =      -0.1653651623512448 [Eh]
	 Opposite-Spin Energy      =      -0.6386376312815026 [Eh]
	 Correlation Energy        =      -0.8040027936327474 [Eh]
	 Total Energy              =    -158.1568204483604632 [Eh]
	-----------------------------------------------------------
	 ================> DF-SCS-MP2 Energies <================== 
	-----------------------------------------------------------
	 SCS Same-Spin Scale       =       0.3333333333333333 [-]
	 SCS Opposite-Spin Scale   =       1.2000000000000000 [-]
	 SCS Same-Spin Energy      =      -0.0551217207837483 [Eh]
	 SCS Opposite-Spin Energy  =      -0.7663651575378031 [Eh]
	 SCS Correlation Energy    =      -0.8214868783215513 [Eh]
	 SCS Total Energy          =    -158.1743045330492805 [Eh]
	-----------------------------------------------------------


  -Total Gradient:
     Atom            X                  Y                   Z
    ------   -----------------  -----------------  -----------------
       1        0.007896698792     0.006758453363    -0.006346220315
       2        0.008157513447    -0.009350959142     0.000616880440
       3        0.003283241551     0.004171367213     0.011237201364
       4       -0.025194170543    -0.007037049174    -0.008026981505
       5       -0.007766762885    -0.008224627167     0.006061553239
       6       -0.003184441775    -0.005635493215    -0.011477554823
       7        0.021834728225     0.031060271133     0.011157231207
       8        0.007979290324     0.008478057819    -0.006371591050
       9        0.003318383207     0.005620783610     0.011574259804
      10       -0.021646652261    -0.031242787122    -0.010670732888
      11       -0.003261052830    -0.004016333716    -0.010993809319
      12       -0.007858197045    -0.006793989049     0.006406271417
      13       -0.008237821468     0.009755368425    -0.000638446304
      14        0.024679243258     0.006456937020     0.007471938731


*** tstop() called on cpu-6-2.local at Wed Jun 14 14:58:14 2017
Module time:
	user time   =     305.22 seconds =       5.09 minutes
	system time =       3.21 seconds =       0.05 minutes
	total time  =        309 seconds =       5.15 minutes
Total time:
	user time   =     305.23 seconds =       5.09 minutes
	system time =       3.21 seconds =       0.05 minutes
	total time  =        309 seconds =       5.15 minutes

			-----------------------------------------
			 OPTKING 2.0: for geometry optimizations 
			  - R.A. King,  Bethel University        
			-----------------------------------------

	Internal coordinates to be generated automatically.
	Detected frag 1 with atoms:  1 2 3 4 5 6 7 8 9 10 11 12 13 14
	---Fragment 1 Bond Connectivity---
	 1 : 4
	 2 : 4
	 3 : 4
	 4 : 1 2 3 7
	 5 : 7
	 6 : 7
	 7 : 4 5 6 10
	 8 : 10
	 9 : 10
	 10 : 7 8 9 14
	 11 : 14
	 12 : 14
	 13 : 14
	 14 : 10 11 12 13

	Assuming in current code that numbering for constraints corresponds to unified fragment.
	Fixed dihedral atom list: 
	     7    10    14    13
	---Fragment 1 Geometry and Gradient---
	 H          -4.3705460943        0.1095385313        0.5948404886
	 H          -4.1040947096        3.1860126757       -0.5767897138
	 H          -3.5409563220        0.6084262304       -2.5610021533
	 C          -3.3538734348        1.3095146257       -0.6750554727
	 H           0.4766014365        2.5491749689       -1.2003993376
	 H          -0.3510986097        2.0521769959        1.9573330304
	 C          -0.5400712230        1.3491988745        0.0713863498
	 H          -0.4758205344       -2.5493061377        1.1995528511
	 H           0.3537692379       -2.0523081647       -1.9562897908
	 C           0.5408521251       -1.3493300433       -0.0703431102
	 H           3.5417372241       -0.6066676730        2.5601556668
	 H           4.3694372703       -0.1096697001       -0.5956869751
	 H           4.1048756117       -3.1842541183        0.5759432273
	 C           3.3527646108       -1.3096457945        0.6742089862
	             0.0078966988        0.0067584534       -0.0063462203
	             0.0081575134       -0.0093509591        0.0006168804
	             0.0032832416        0.0041713672        0.0112372014
	            -0.0251941705       -0.0070370492       -0.0080269815
	            -0.0077667629       -0.0082246272        0.0060615532
	            -0.0031844418       -0.0056354932       -0.0114775548
	             0.0218347282        0.0310602711        0.0111572312
	             0.0079792903        0.0084780578       -0.0063715910
	             0.0033183832        0.0056207836        0.0115742598
	            -0.0216466523       -0.0312427871       -0.0106707329
	            -0.0032610528       -0.0040163337       -0.0109938093
	            -0.0078581970       -0.0067939890        0.0064062714
	            -0.0082378215        0.0097553684       -0.0006384463
	             0.0246792433        0.0064569370        0.0074719387

	Previous optimization step data not found.  Starting new optimization.

	---Fragment 1 Intrafragment Coordinates---
	 - Coordinate -           - BOHR/RAD -       - ANG/DEG -
	 R(1,4)           =         2.021436	       1.069698
	 R(2,4)           =         2.023298	       1.070683
	 R(3,4)           =         2.020723	       1.069320
	 R(4,7)           =         2.911397	       1.540645
	 R(5,7)           =         2.022623	       1.070326
	 R(6,7)           =         2.021555	       1.069761
	 R(7,10)          =         2.910419	       1.540128
	 R(8,10)          =         2.021436	       1.069698
	 R(9,10)          =         2.021379	       1.069668
	 R(10,14)         =         2.909087	       1.539422
	 R(11,14)         =         2.021555	       1.069761
	 R(12,14)         =         2.021436	       1.069698
	 R(13,14)         =         2.022247	       1.070127
	 B(1,4,2)         =         1.910870	     109.484805
	 B(1,4,3)         =         1.911121	     109.499161
	 B(1,4,7)         =         1.910399	     109.457783
	 B(2,4,3)         =         1.910042	     109.437340
	 B(2,4,7)         =         1.910564	     109.467262
	 B(3,4,7)         =         1.910803	     109.480971
	 B(4,7,5)         =         1.909937	     109.431343
	 B(4,7,6)         =         1.911630	     109.528316
	 B(4,7,10)        =         1.911154	     109.501062
	 B(5,7,6)         =         1.910605	     109.469614
	 B(5,7,10)        =         1.910047	     109.437654
	 B(6,7,10)        =         1.910425	     109.459295
	 B(7,10,8)        =         1.910303	     109.452301
	 B(7,10,9)        =         1.910824	     109.482155
	 B(7,10,14)       =         1.911213	     109.504437
	 B(8,10,9)        =         1.910417	     109.458846
	 B(8,10,14)       =         1.910766	     109.478806
	 B(9,10,14)       =         1.910276	     109.450772
	 B(10,14,11)      =         1.911204	     109.503926
	 B(10,14,12)      =         1.910766	     109.478806
	 B(10,14,13)      =         1.911778	     109.536830
	 B(11,14,12)      =         1.909888	     109.428519
	 B(11,14,13)      =         1.910195	     109.446097
	 B(12,14,13)      =         1.909967	     109.433065
	 D(1,4,7,5)       =         3.140997	     179.965873
	 D(1,4,7,6)       =        -1.047644	     -60.025575
	 D(1,4,7,10)      =         1.047427	      60.013132
	 D(2,4,7,5)       =        -1.047689	     -60.028143
	 D(2,4,7,6)       =         1.046856	      59.980409
	 D(2,4,7,10)      =        -3.141259	    -179.980883
	 D(3,4,7,5)       =         1.046044	      59.933911
	 D(3,4,7,6)       =         3.140588	     179.942463
	 D(3,4,7,10)      =        -1.047526	     -60.018830
	 D(4,7,10,8)      =        -1.047368	     -60.009777
	 D(4,7,10,9)      =         1.046677	      59.970178
	 D(4,7,10,14)     =         3.141107	     179.972182
	 D(5,7,10,8)      =        -3.140871	    -179.958653
	 D(5,7,10,9)      =        -1.046826	     -59.978698
	 D(5,7,10,14)     =         1.047604	      60.023306
	 D(6,7,10,8)      =         1.048439	      60.071149
	 D(6,7,10,9)      =        -3.140701	    -179.948896
	 D(6,7,10,14)     =        -1.046271	     -59.946893
	 D(7,10,14,11)    =         1.046747	      59.974196
	 D(7,10,14,12)    =        -1.047166	     -59.998178
	 D(7,10,14,13)    =        -3.141528	    -179.996289
	 D(8,10,14,11)    =        -1.047680	     -60.027626
	 D(8,10,14,12)    =         3.141593	     180.000000
	 D(8,10,14,13)    =         1.047231	      60.001889
	 D(9,10,14,11)    =         3.141512	     179.995403
	 D(9,10,14,12)    =         1.047599	      60.023030
	 D(9,10,14,13)    =        -1.046763	     -59.975081

	Current energy   :      -158.1568204484

	Generating empirical Hessian (Schlegel '84) for each fragment.
	Adding user-defined constraint: Fragment 1; Coordinate 58:
		Value =    -3.141528; Fixed value    =    -3.141575
		Force =    -0.000024; Force constant =     0.500000
	Removing off-diagonal coupling between coordinate 58 and others.
	Taking RFO optimization step.
	Going to follow RFO solution 1.
	Using RFO vector 1.

	Determining step-restricting scale parameter for RS-RFO.
	Maximum step size allowed    0.10000

	 Iter      |step|        alpha        rfo_root  
	------------------------------------------------
	    0     0.17900       1.00000           1
	    1     0.13798       8.65526           1
	    2     0.11342      21.17975           1
	    3     0.10244      31.27463           1
	    4     0.10010      33.99803           1
	    5     0.10000      34.12443           1
	------------------------------------------------
	Norm of target step-size    0.10000
	Projected energy change by RFO approximation:        -0.0037176216

	Back-transformation to cartesian coordinates...
	Could not converge backtransformation.
	Using first guess instead.

	--- Internal Coordinate Step in ANG or DEG, aJ/ANG or AJ/DEG ---
	 ---------------------------------------------------------------------------
	   Coordinate                Previous        Force       Change         New 
	   ----------                --------       ------       ------       ------
	    1 R(1,4)          =      1.069698     0.098621     0.012200     1.081898
	    2 R(2,4)          =      1.070683     0.096123     0.011909     1.082592
	    3 R(3,4)          =      1.069320     0.100833     0.012460     1.081780
	    4 R(4,7)          =      1.540645    -0.052568    -0.007726     1.532919
	    5 R(5,7)          =      1.070326     0.103765     0.012804     1.083130
	    6 R(6,7)          =      1.069761     0.106815     0.013162     1.082923
	    7 R(7,10)         =      1.540128    -0.075607    -0.011025     1.529102
	    8 R(8,10)         =      1.069698     0.107504     0.013245     1.082943
	    9 R(9,10)         =      1.069668     0.107603     0.013257     1.082924
	   10 R(10,14)        =      1.539422    -0.047726    -0.006991     1.532431
	   11 R(11,14)        =      1.069761     0.098517     0.012187     1.081948
	   12 R(12,14)        =      1.069698     0.098946     0.012240     1.081938
	   13 R(13,14)        =      1.070127     0.099490     0.012304     1.082431
	   14 B(1,4,2)        =    109.484805    -0.000250    -0.587965   108.896840
	   15 B(1,4,3)        =    109.499161    -0.000172    -0.464720   109.034441
	   16 B(1,4,7)        =    109.457783     0.000133     0.304627   109.762409
	   17 B(2,4,3)        =    109.437340    -0.000244    -0.569791   108.867549
	   18 B(2,4,7)        =    109.467262     0.000411     1.020150   110.487412
	   19 B(3,4,7)        =    109.480971     0.000123     0.281800   109.762772
	   20 B(4,7,5)        =    109.431343    -0.000115    -0.138256   109.293087
	   21 B(4,7,6)        =    109.528316    -0.000124    -0.166706   109.361611
	   22 B(4,7,10)       =    109.501062     0.000630     1.378190   110.879252
	   23 B(5,7,6)        =    109.469614     0.000009    -0.241731   109.227883
	   24 B(5,7,10)       =    109.437654    -0.000200    -0.421912   109.015742
	   25 B(6,7,10)       =    109.459295    -0.000199    -0.419810   109.039484
	   26 B(7,10,8)       =    109.452301    -0.000200    -0.424513   109.027787
	   27 B(7,10,9)       =    109.482155    -0.000204    -0.435479   109.046676
	   28 B(7,10,14)      =    109.504437     0.000630     1.378135   110.882572
	   29 B(8,10,9)       =    109.458846     0.000009    -0.241251   109.217595
	   30 B(8,10,14)      =    109.478806    -0.000119    -0.149084   109.329722
	   31 B(9,10,14)      =    109.450772    -0.000115    -0.138211   109.312562
	   32 B(10,14,11)     =    109.503926     0.000125     0.285894   109.789819
	   33 B(10,14,12)     =    109.478806     0.000128     0.293769   109.772575
	   34 B(10,14,13)     =    109.536830     0.000402     0.997399   110.534229
	   35 B(11,14,12)     =    109.428519    -0.000168    -0.451895   108.976624
	   36 B(11,14,13)     =    109.446097    -0.000244    -0.573311   108.872785
	   37 B(12,14,13)     =    109.433065    -0.000243    -0.569665   108.863400
	   38 D(1,4,7,5)      =    179.965873     0.000010     0.139195   180.105068
	   39 D(1,4,7,6)      =    -60.025575    -0.000022    -0.341324   -60.366899
	   40 D(1,4,7,10)     =     60.013132    -0.000006    -0.107184    59.905949
	   41 D(2,4,7,5)      =    -60.028143     0.000016     0.239786   -59.788357
	   42 D(2,4,7,6)      =     59.980409    -0.000016    -0.240733    59.739677
	   43 D(2,4,7,10)     =   -179.980883    -0.000000    -0.006593  -179.987476
	   44 D(3,4,7,5)      =     59.933911     0.000022     0.348207    60.282117
	   45 D(3,4,7,6)      =    179.942463    -0.000009    -0.132312   179.810151
	   46 D(3,4,7,10)     =    -60.018830     0.000006     0.101828   -59.917002
	   47 D(4,7,10,8)     =    -60.009777     0.000028     0.414259   -59.595518
	   48 D(4,7,10,9)     =     59.970178    -0.000027    -0.395231    59.574947
	   49 D(4,7,10,14)    =    179.972182     0.000001     0.012994   179.985175
	   50 D(5,7,10,8)     =   -179.958653    -0.000000    -0.000963  -179.959615
	   51 D(5,7,10,9)     =    -59.978698    -0.000054    -0.810453   -60.789151
	   52 D(5,7,10,14)    =     60.023306    -0.000027    -0.402228    59.621078
	   53 D(6,7,10,8)     =     60.071149     0.000053     0.797628    60.868776
	   54 D(6,7,10,9)     =   -179.948896    -0.000001    -0.011863  -179.960759
	   55 D(6,7,10,14)    =    -59.946893     0.000027     0.396362   -59.550531
	   56 D(7,10,14,11)   =     59.974196    -0.000006    -0.095601    59.878595
	   57 D(7,10,14,12)   =    -59.998178     0.000006     0.101882   -59.896296
	   58 D(7,10,14,13)   =   -179.996289    -0.000000    -0.001204  -179.997493
	   59 D(8,10,14,11)   =    -60.027626    -0.000021    -0.333579   -60.361206
	   60 D(8,10,14,12)   =    180.000000    -0.000009    -0.136096   179.863904
	   61 D(8,10,14,13)   =     60.001889    -0.000016    -0.239183    59.762706
	   62 D(9,10,14,11)   =    179.995403     0.000009     0.135348   180.130751
	   63 D(9,10,14,12)   =     60.023030     0.000021     0.332831    60.355861
	   64 D(9,10,14,13)   =    -59.975081     0.000015     0.229745   -59.745337
	 ---------------------------------------------------------------------------
	Successfully symmetrized geometry.
	 Forces used to impose fixed constraints are not included.
	  Forces zeroed: 58 

  ==> Convergence Check <==

  Measures of convergence in internal coordinates in au.
  Criteria marked as inactive (o), active & met (*), and active & unmet ( ).
  --------------------------------------------------------------------------------------------- ~
   Step     Total Energy     Delta E     MAX Force     RMS Force      MAX Disp      RMS Disp    ~
  --------------------------------------------------------------------------------------------- ~
    Convergence Criteria    1.00e-06 *    3.00e-04 *             o    1.20e-03 *             o  ~
  --------------------------------------------------------------------------------------------- ~
      1    -158.15682045   -1.58e+02      1.31e-02      5.62e-03 o    2.51e-02      1.25e-02 o  ~
  ---------------------------------------------------------------------------------------------

	Writing optimization data to binary file.
	Structure for next step:
	Cartesian Geometry (in Angstrom)
	    H    -2.3295021189   0.0587241392   0.3183926706
	    H    -2.1859814329   1.6987674148  -0.3067670926
	    H    -1.8866669361   0.3247040524  -1.3660384291
	    C    -1.7762310573   0.6979603887  -0.3567156916
	    H     0.2521210792   1.3482013372  -0.6450685336
	    H    -0.1906300777   1.0826516756   1.0436921551
	    C    -0.2939700016   0.7049574326   0.0340437452
	    H    -0.2521646455  -1.3483602881   0.6446285821
	    H     0.1915067152  -1.0824272789  -1.0435539423
	    C     0.2941608847  -0.7048853848  -0.0337769414
	    H     1.8873332098  -0.3239531590   1.3656360827
	    H     2.3293341078  -0.0586503631  -0.3186345360
	    H     2.1865354616  -1.6982533606   0.3065351540
	    C     1.7760474608  -0.6979224867   0.3564911874
			--------------------------
			 OPTKING Finished Execution 
			--------------------------

    Structure for next step:
    Molecular point group: c1
    Full point group: C1

    Geometry (in Angstrom), charge = 0, multiplicity = 1:

    H           -2.329536340885     0.058677055176     0.318404370541
    H           -2.186015654869     1.698720330864    -0.306755392652
    H           -1.886701158073     0.324656968399    -1.366026729191
    C           -1.776265279305     0.697913304720    -0.356703991699
    H            0.252086857207     1.348154253217    -0.645056833710
    H           -0.190664299759     1.082604591657     1.043703855052
    C           -0.294004223658     0.704910348641     0.034055445106
    H           -0.252198867533    -1.348407372036     0.644640282050
    H            0.191472493214    -1.082474362918    -1.043542242411
    C            0.294126662735    -0.704932468754    -0.033765241476
    H            1.887298987749    -0.324000243026     1.365647782630
    H            2.329299885817    -0.058697447094    -0.318622836053
    H            2.186501239540    -1.698300444612     0.306546853890
    C            1.776013238766    -0.697969570687     0.356502887349

gradient() will perform analytic gradient computation.

*** tstart() called on cpu-6-2.local
*** at Wed Jun 14 14:58:14 2017

    SCF Algorithm Type (re)set to DF.

*** tstart() called on cpu-6-2.local
*** at Wed Jun 14 14:58:14 2017

   => Loading Basis Set <=

    Name: AUG-CC-PVTZ
    Role: ORBITAL
    Keyword: BASIS
    atoms 1-3, 5-6, 8-9, 11-13 entry H          line    34 file /cbio/jclab/home/chayas/anaconda/envs/py35/share/psi4/basis/aug-cc-pvtz.gbs 
    atoms 4, 7, 10, 14         entry C          line   221 file /cbio/jclab/home/chayas/anaconda/envs/py35/share/psi4/basis/aug-cc-pvtz.gbs 


         ---------------------------------------------------------
                                   SCF
            by Justin Turney, Rob Parrish, and Andy Simmonett
                              RHF Reference
                        1 Threads,    953 MiB Core
         ---------------------------------------------------------

  ==> Geometry <==

    Molecular point group: c1
    Full point group: C1

    Geometry (in Angstrom), charge = 0, multiplicity = 1:

       Center              X                  Y                   Z               Mass       
    ------------   -----------------  -----------------  -----------------  -----------------
           H         -2.329536340885     0.058677055176     0.318404370541     1.007825032070
           H         -2.186015654869     1.698720330864    -0.306755392652     1.007825032070
           H         -1.886701158073     0.324656968399    -1.366026729191     1.007825032070
           C         -1.776265279305     0.697913304720    -0.356703991699    12.000000000000
           H          0.252086857207     1.348154253217    -0.645056833710     1.007825032070
           H         -0.190664299759     1.082604591657     1.043703855052     1.007825032070
           C         -0.294004223658     0.704910348641     0.034055445106    12.000000000000
           H         -0.252198867533    -1.348407372036     0.644640282050     1.007825032070
           H          0.191472493214    -1.082474362918    -1.043542242411     1.007825032070
           C          0.294126662735    -0.704932468754    -0.033765241476    12.000000000000
           H          1.887298987749    -0.324000243026     1.365647782630     1.007825032070
           H          2.329299885817    -0.058697447094    -0.318622836053     1.007825032070
           H          2.186501239540    -1.698300444612     0.306546853890     1.007825032070
           C          1.776013238766    -0.697969570687     0.356502887349    12.000000000000

  Running in c1 symmetry.

  Rotational constants: A =      0.77649  B =      0.12373  C =      0.11593 [cm^-1]
  Rotational constants: A =  23278.68783  B =   3709.40500  C =   3475.48460 [MHz]
  Nuclear repulsion =  131.478803054364221

  Charge       = 0
  Multiplicity = 1
  Electrons    = 34
  Nalpha       = 17
  Nbeta        = 17

  ==> Algorithm <==

  SCF Algorithm Type is DF.
  DIIS enabled.
  MOM disabled.
  Fractional occupation disabled.
  Guess Type is READ.
  Energy threshold   = 1.00e-10
  Density threshold  = 1.00e-10
  Integral threshold = 0.00e+00

  ==> Primary Basis <==

  Basis Set: AUG-CC-PVTZ
    Blend: AUG-CC-PVTZ
    Number of shells: 146
    Number of basis function: 414
    Number of Cartesian functions: 470
    Spherical Harmonics?: true
    Max angular momentum: 3

   => Loading Basis Set <=

    Name: (AUG-CC-PVTZ AUX)
    Role: JKFIT
    Keyword: DF_BASIS_SCF
    atoms 1-3, 5-6, 8-9, 11-13 entry H          line    69 file /cbio/jclab/home/chayas/anaconda/envs/py35/share/psi4/basis/aug-cc-pvtz-jkfit.gbs 
    atoms 4, 7, 10, 14         entry C          line   161 file /cbio/jclab/home/chayas/anaconda/envs/py35/share/psi4/basis/aug-cc-pvtz-jkfit.gbs 

  Reading orbitals from file 180, no projection.

  ==> Pre-Iterations <==

   -------------------------------------------------------
    Irrep   Nso     Nmo     Nalpha   Nbeta   Ndocc  Nsocc
   -------------------------------------------------------
     A        414     414       0       0       0       0
   -------------------------------------------------------
    Total     414     414      17      17      17       0
   -------------------------------------------------------

  ==> Integral Setup <==

  ==> DFJK: Density-Fitted J/K Matrices <==

    J tasked:                  Yes
    K tasked:                  Yes
    wK tasked:                  No
    OpenMP threads:              1
    Integrals threads:           1
    Memory (MB):               715
    Algorithm:                Core
    Integral Cache:           NONE
    Schwarz Cutoff:          1E-12
    Fitting Condition:       1E-12

   => Auxiliary Basis Set <=

  Basis Set: (AUG-CC-PVTZ AUX)
    Blend: AUG-CC-PVTZ-JKFIT
    Number of shells: 260
    Number of basis function: 876
    Number of Cartesian functions: 1074
    Spherical Harmonics?: true
    Max angular momentum: 4

  Minimum eigenvalue in the overlap matrix is 7.9974636384E-06.
  Using Symmetric Orthogonalization.

  SCF Guess: Orbitals guess was supplied from a previous computation.

  ==> Iterations <==

                           Total Energy        Delta E     RMS |[F,P]|

   @DF-RHF iter   0:  -157.27809167340143   -1.57278e+02   1.26929e-04 
   @DF-RHF iter   1:  -157.35510185879721   -7.70102e-02   5.23068e-05 
   @DF-RHF iter   2:  -157.35538152437954   -2.79666e-04   2.70689e-05 DIIS
   @DF-RHF iter   3:  -157.35544082314490   -5.92988e-05   2.89809e-06 DIIS
   @DF-RHF iter   4:  -157.35544229506087   -1.47192e-06   7.75312e-07 DIIS
   @DF-RHF iter   5:  -157.35544238369090   -8.86300e-08   2.57302e-07 DIIS
   @DF-RHF iter   6:  -157.35544239365510   -9.96420e-09   4.16874e-08 DIIS
   @DF-RHF iter   7:  -157.35544239404402   -3.88923e-10   5.93872e-09 DIIS
   @DF-RHF iter   8:  -157.35544239405354   -9.52127e-12   9.92508e-10 DIIS
   @DF-RHF iter   9:  -157.35544239405343    1.13687e-13   2.15690e-10 DIIS
   @DF-RHF iter  10:  -157.35544239405283    5.96856e-13   4.30209e-11 DIIS

  ==> Post-Iterations <==

    Orbital Energies (a.u.)
    -----------------------

    Doubly Occupied:                                                      

       1A    -11.210303     2A    -11.209688     3A    -11.203850  
       4A    -11.203806     5A     -1.071512     6A     -0.980121  
       7A     -0.859886     8A     -0.789058     9A     -0.645585  
      10A     -0.585072    11A     -0.572111    12A     -0.571811  
      13A     -0.513026    14A     -0.499616    15A     -0.470418  
      16A     -0.465509    17A     -0.449442  

    Virtual:                                                              

      18A      0.032272    19A      0.036863    20A      0.039720  
      21A      0.040945    22A      0.056424    23A      0.058481  
      24A      0.059551    25A      0.061387    26A      0.081826  
      27A      0.085845    28A      0.095896    29A      0.112254  
      30A      0.123192    31A      0.130762    32A      0.135343  
      33A      0.141676    34A      0.143924    35A      0.147025  
      36A      0.148132    37A      0.158882    38A      0.159731  
      39A      0.168430    40A      0.170409    41A      0.202366  
      42A      0.209859    43A      0.212435    44A      0.229227  
      45A      0.248833    46A      0.249803    47A      0.250945  
      48A      0.269373    49A      0.272348    50A      0.280562  
      51A      0.281461    52A      0.316251    53A      0.318971  
      54A      0.331371    55A      0.337956    56A      0.338813  
      57A      0.346251    58A      0.356827    59A      0.357258  
      60A      0.358324    61A      0.373311    62A      0.374078  
      63A      0.384178    64A      0.389152    65A      0.391067  
      66A      0.391438    67A      0.395184    68A      0.402159  
      69A      0.407285    70A      0.413810    71A      0.424523  
      72A      0.429930    73A      0.442680    74A      0.446486  
      75A      0.454395    76A      0.461054    77A      0.461830  
      78A      0.470159    79A      0.474700    80A      0.477314  
      81A      0.477990    82A      0.489636    83A      0.497695  
      84A      0.506069    85A      0.507937    86A      0.508591  
      87A      0.521822    88A      0.524156    89A      0.525902  
      90A      0.538005    91A      0.547780    92A      0.563799  
      93A      0.564461    94A      0.577096    95A      0.585735  
      96A      0.597776    97A      0.598100    98A      0.616265  
      99A      0.621507   100A      0.640006   101A      0.644185  
     102A      0.649568   103A      0.684201   104A      0.690368  
     105A      0.700632   106A      0.703811   107A      0.764680  
     108A      0.776633   109A      0.796851   110A      0.817359  
     111A      0.821974   112A      0.825800   113A      0.838116  
     114A      0.841052   115A      0.845545   116A      0.855230  
     117A      0.861444   118A      0.863969   119A      0.885606  
     120A      0.890386   121A      0.893307   122A      0.900592  
     123A      0.915707   124A      0.916229   125A      0.920022  
     126A      0.932238   127A      0.939095   128A      0.944424  
     129A      0.956616   130A      0.958508   131A      0.960667  
     132A      0.964290   133A      0.988120   134A      0.995783  
     135A      0.996825   136A      0.999978   137A      1.008136  
     138A      1.027629   139A      1.045955   140A      1.049287  
     141A      1.070540   142A      1.079775   143A      1.095687  
     144A      1.101118   145A      1.107853   146A      1.123915  
     147A      1.129879   148A      1.133044   149A      1.136462  
     150A      1.157774   151A      1.160839   152A      1.167794  
     153A      1.175867   154A      1.190047   155A      1.207153  
     156A      1.207703   157A      1.226107   158A      1.246168  
     159A      1.251513   160A      1.257607   161A      1.259343  
     162A      1.263242   163A      1.275981   164A      1.279077  
     165A      1.281109   166A      1.294615   167A      1.310319  
     168A      1.325364   169A      1.343883   170A      1.353927  
     171A      1.358108   172A      1.364812   173A      1.388720  
     174A      1.422681   175A      1.430010   176A      1.433270  
     177A      1.461500   178A      1.483872   179A      1.495952  
     180A      1.503499   181A      1.530139   182A      1.536159  
     183A      1.543196   184A      1.555572   185A      1.575298  
     186A      1.581690   187A      1.599737   188A      1.607721  
     189A      1.616606   190A      1.640257   191A      1.642878  
     192A      1.647275   193A      1.681464   194A      1.686375  
     195A      1.698798   196A      1.700521   197A      1.703006  
     198A      1.708965   199A      1.734054   200A      1.738219  
     201A      1.753645   202A      1.757462   203A      1.760580  
     204A      1.773388   205A      1.773670   206A      1.786469  
     207A      1.788359   208A      1.794067   209A      1.829488  
     210A      1.851083   211A      1.861314   212A      1.874048  
     213A      1.879269   214A      1.891158   215A      1.915943  
     216A      1.921543   217A      1.965488   218A      1.968813  
     219A      1.970467   220A      1.982255   221A      1.983793  
     222A      1.986242   223A      2.022021   224A      2.047579  
     225A      2.058392   226A      2.073482   227A      2.094700  
     228A      2.102597   229A      2.148374   230A      2.152516  
     231A      2.167592   232A      2.168530   233A      2.182602  
     234A      2.210129   235A      2.238905   236A      2.249211  
     237A      2.258352   238A      2.290462   239A      2.302142  
     240A      2.317108   241A      2.323596   242A      2.324335  
     243A      2.330522   244A      2.338037   245A      2.378234  
     246A      2.393482   247A      2.431893   248A      2.456587  
     249A      2.471995   250A      2.478021   251A      2.501424  
     252A      2.531902   253A      2.604128   254A      2.610328  
     255A      2.657555   256A      2.686848   257A      2.695432  
     258A      2.897145   259A      2.901407   260A      3.026347  
     261A      3.236141   262A      3.252531   263A      3.260688  
     264A      3.387210   265A      3.421019   266A      3.429303  
     267A      3.460783   268A      3.466281   269A      3.479613  
     270A      3.480436   271A      3.515753   272A      3.530072  
     273A      3.573547   274A      3.580551   275A      3.590690  
     276A      3.591040   277A      3.630385   278A      3.666390  
     279A      3.683977   280A      3.684108   281A      3.720557  
     282A      3.720767   283A      3.725174   284A      3.734013  
     285A      3.754916   286A      3.760428   287A      3.787752  
     288A      3.796628   289A      3.812504   290A      3.813507  
     291A      3.844105   292A      3.866104   293A      3.876800  
     294A      3.883618   295A      3.904065   296A      3.909236  
     297A      3.926379   298A      3.950584   299A      3.950985  
     300A      3.993180   301A      3.998994   302A      3.999588  
     303A      4.017596   304A      4.018220   305A      4.043109  
     306A      4.045533   307A      4.049467   308A      4.061608  
     309A      4.147423   310A      4.169353   311A      4.206093  
     312A      4.211610   313A      4.214669   314A      4.229535  
     315A      4.245468   316A      4.265806   317A      4.269938  
     318A      4.284053   319A      4.293657   320A      4.305348  
     321A      4.347714   322A      4.351951   323A      4.357544  
     324A      4.397187   325A      4.410131   326A      4.420546  
     327A      4.534699   328A      4.535273   329A      4.563958  
     330A      4.581250   331A      4.624306   332A      4.646697  
     333A      4.674541   334A      4.690468   335A      4.724713  
     336A      4.726261   337A      4.731238   338A      4.737920  
     339A      4.751594   340A      4.779789   341A      4.796517  
     342A      4.839014   343A      4.854665   344A      4.868133  
     345A      4.868845   346A      4.886613   347A      4.901307  
     348A      4.937719   349A      4.953123   350A      4.986390  
     351A      5.034455   352A      5.042501   353A      5.049054  
     354A      5.075521   355A      5.114485   356A      5.162618  
     357A      5.187278   358A      5.212165   359A      5.213779  
     360A      5.219982   361A      5.236085   362A      5.242748  
     363A      5.245843   364A      5.266424   365A      5.270057  
     366A      5.379688   367A      5.385950   368A      5.397087  
     369A      5.404870   370A      5.406258   371A      5.441684  
     372A      5.445360   373A      5.449265   374A      5.484261  
     375A      5.534093   376A      5.570010   377A      5.590560  
     378A      5.606376   379A      5.658183   380A      5.686806  
     381A      5.698640   382A      5.723344   383A      5.728427  
     384A      5.760485   385A      5.819595   386A      5.840428  
     387A      5.858849   388A      5.895384   389A      5.910966  
     390A      6.005678   391A      6.035709   392A      6.105405  
     393A      6.128605   394A      6.146530   395A      6.220997  
     396A      6.226023   397A      6.246660   398A      6.247685  
     399A      6.271330   400A      6.332292   401A      6.381612  
     402A      6.390952   403A      6.540159   404A      6.549611  
     405A      6.741635   406A      6.777800   407A      6.819467  
     408A      6.833704   409A      6.861233   410A      6.987461  
     411A     17.899708   412A     18.132609   413A     18.238973  
     414A     18.850821  

    Final Occupation by Irrep:
              A 
    DOCC [    17 ]

  Energy converged.

  @DF-RHF Final Energy:  -157.35544239405283

   => Energetics <=

    Nuclear Repulsion Energy =            131.4788030543642208
    One-Electron Energy =                -471.0668665924008565
    Two-Electron Energy =                 182.2326211439838062
    DFT Exchange-Correlation Energy =       0.0000000000000000
    Empirical Dispersion Energy =           0.0000000000000000
    PCM Polarization Energy =               0.0000000000000000
    EFP Energy =                            0.0000000000000000
    Total Energy =                       -157.3554423940528295



Properties will be evaluated at   0.000000,   0.000000,   0.000000 Bohr

Properties computed using the SCF density matrix

  Nuclear Dipole Moment: (a.u.)
     X:     0.0014      Y:     0.0009      Z:    -0.0010

  Electronic Dipole Moment: (a.u.)
     X:    -0.0014      Y:    -0.0009      Z:     0.0009

  Dipole Moment: (a.u.)
     X:     0.0001      Y:    -0.0001      Z:    -0.0001     Total:     0.0001

  Dipole Moment: (Debye)
     X:     0.0001      Y:    -0.0002      Z:    -0.0003     Total:     0.0004


*** tstop() called on cpu-6-2.local at Wed Jun 14 14:59:12 2017
Module time:
	user time   =      58.03 seconds =       0.97 minutes
	system time =       0.43 seconds =       0.01 minutes
	total time  =         58 seconds =       0.97 minutes
Total time:
	user time   =     363.31 seconds =       6.06 minutes
	system time =       3.73 seconds =       0.06 minutes
	total time  =        367 seconds =       6.12 minutes

  //>>>>>>>>>>>>>>>>>>>>>>>>>>>>>>>>>>>//
  //               DFMP2               //
  //<<<<<<<<<<<<<<<<<<<<<<<<<<<<<<<<<<<//

   => Loading Basis Set <=

    Name: (AUG-CC-PVTZ AUX)
    Role: RIFIT
    Keyword: DF_BASIS_MP2
    atoms 1-3, 5-6, 8-9, 11-13 entry H          line    29 file /cbio/jclab/home/chayas/anaconda/envs/py35/share/psi4/basis/aug-cc-pvtz-ri.gbs 
    atoms 4, 7, 10, 14         entry C          line   147 file /cbio/jclab/home/chayas/anaconda/envs/py35/share/psi4/basis/aug-cc-pvtz-ri.gbs 

	 --------------------------------------------------------
	                          DF-MP2                         
	      2nd-Order Density-Fitted Moller-Plesset Theory     
	              RMP2 Wavefunction,   1 Threads             
	                                                         
	        Rob Parrish, Justin Turney, Andy Simmonett,      
	           Ed Hohenstein, and C. David Sherrill          
	 --------------------------------------------------------

   => Auxiliary Basis Set <=

  Basis Set: (AUG-CC-PVTZ AUX)
    Blend: AUG-CC-PVTZ-RI
    Number of shells: 252
    Number of basis function: 884
    Number of Cartesian functions: 1094
    Spherical Harmonics?: true
    Max angular momentum: 4

	 --------------------------------------------------------
	                 NBF =   414, NAUX =   884
	 --------------------------------------------------------
	   CLASS    FOCC     OCC    AOCC    AVIR     VIR    FVIR
	   PAIRS       0      17      17     397     397       0
	 --------------------------------------------------------


         ------------------------------------------------------------
                                     CPHF                           
                                  Rob Parrish                       
         ------------------------------------------------------------

  ==> Geometry <==

    Molecular point group: c1
    Full point group: C1

    Geometry (in Angstrom), charge = 0, multiplicity = 1:

       Center              X                  Y                   Z               Mass       
    ------------   -----------------  -----------------  -----------------  -----------------
           H         -2.329536340885     0.058677055176     0.318404370541     1.007825032070
           H         -2.186015654869     1.698720330864    -0.306755392652     1.007825032070
           H         -1.886701158073     0.324656968399    -1.366026729191     1.007825032070
           C         -1.776265279305     0.697913304720    -0.356703991699    12.000000000000
           H          0.252086857207     1.348154253217    -0.645056833710     1.007825032070
           H         -0.190664299759     1.082604591657     1.043703855052     1.007825032070
           C         -0.294004223658     0.704910348641     0.034055445106    12.000000000000
           H         -0.252198867533    -1.348407372036     0.644640282050     1.007825032070
           H          0.191472493214    -1.082474362918    -1.043542242411     1.007825032070
           C          0.294126662735    -0.704932468754    -0.033765241476    12.000000000000
           H          1.887298987749    -0.324000243026     1.365647782630     1.007825032070
           H          2.329299885817    -0.058697447094    -0.318622836053     1.007825032070
           H          2.186501239540    -1.698300444612     0.306546853890     1.007825032070
           C          1.776013238766    -0.697969570687     0.356502887349    12.000000000000

  Nuclear repulsion =  131.478803054364221
  Reference energy  = -157.355442394052830

  ==> Basis Set <==

  Basis Set: AUG-CC-PVTZ
    Blend: AUG-CC-PVTZ
    Number of shells: 146
    Number of basis function: 414
    Number of Cartesian functions: 470
    Spherical Harmonics?: true
    Max angular momentum: 3

  ==> CGRSolver (by Rob Parrish) <==

   Number of roots    =         1
   Preconditioning    =    JACOBI
   Convergence cutoff =     1E-06
   Maximum iterations =       100

  ==> CPHFRHamiltonian (by Rob Parrish) <== 

  ==> DFJK: Density-Fitted J/K Matrices <==

    J tasked:                  Yes
    K tasked:                  Yes
    wK tasked:                  No
    OpenMP threads:              1
    Integrals threads:           1
    Memory (MB):               715
    Algorithm:                Core
    Integral Cache:           NONE
    Schwarz Cutoff:          1E-12
    Fitting Condition:       1E-12

   => Auxiliary Basis Set <=

  Basis Set: (AUG-CC-PVTZ AUX)
    Blend: AUG-CC-PVTZ-JKFIT
    Number of shells: 260
    Number of basis function: 876
    Number of Cartesian functions: 1074
    Spherical Harmonics?: true
    Max angular momentum: 4

  ==> CPHF Iterations <==

  => Iterations <=

             Iter  Converged  Remaining    Residual
  CGR           1          0          1   8.307E-02
  CGR           2          0          1   1.321E-02
  CGR           3          0          1   3.487E-03
  CGR           4          0          1   8.131E-04
  CGR           5          0          1   1.195E-04
  CGR           6          0          1   2.154E-05
  CGR           7          0          1   3.672E-06
  CGR           8          1          0   8.131E-07

    CGRSolver converged.

  ==> DFCorrGrad: Density-Fitted Correlated Gradients <==

    OpenMP threads:              1
    Integrals threads:           1
    Memory (MB):               715
    Schwarz Cutoff:          0E+00
    Fitting Condition:       1E-12

   => Auxiliary Basis Set <=

  Basis Set: (AUG-CC-PVTZ AUX)
    Blend: AUG-CC-PVTZ-JKFIT
    Number of shells: 260
    Number of basis function: 876
    Number of Cartesian functions: 1074
    Spherical Harmonics?: true
    Max angular momentum: 4

	-----------------------------------------------------------
	 ==================> DF-MP2 Energies <==================== 
	-----------------------------------------------------------
	 Reference Energy          =    -157.3554423940528295 [Eh]
	 Singles Energy            =      -0.0000000000000000 [Eh]
	 Same-Spin Energy          =      -0.1653416425760884 [Eh]
	 Opposite-Spin Energy      =      -0.6390765366818104 [Eh]
	 Correlation Energy        =      -0.8044181792578988 [Eh]
	 Total Energy              =    -158.1598605733107377 [Eh]
	-----------------------------------------------------------
	 ================> DF-SCS-MP2 Energies <================== 
	-----------------------------------------------------------
	 SCS Same-Spin Scale       =       0.3333333333333333 [-]
	 SCS Opposite-Spin Scale   =       1.2000000000000000 [-]
	 SCS Same-Spin Energy      =      -0.0551138808586961 [Eh]
	 SCS Opposite-Spin Energy  =      -0.7668918440181725 [Eh]
	 SCS Correlation Energy    =      -0.8220057248768686 [Eh]
	 SCS Total Energy          =    -158.1774481189297035 [Eh]
	-----------------------------------------------------------


  -Total Gradient:
     Atom            X                  Y                   Z
    ------   -----------------  -----------------  -----------------
       1        0.003398796236     0.002096456190    -0.001253584162
       2        0.003276293631    -0.002144598015     0.000492126183
       3        0.002182986689     0.001443030484     0.003340455801
       4       -0.013442527936    -0.003733285821    -0.004222936452
       5       -0.003325877189    -0.003891608228     0.000291626676
       6       -0.002409420890    -0.003394840155    -0.003077846439
       7        0.012471635804     0.015629425704     0.005987282694
       8        0.003363298625     0.003951709117    -0.000398041338
       9        0.002481355127     0.003378122648     0.003095001585
      10       -0.012389169444    -0.015642125596    -0.005772338151
      11       -0.002138983295    -0.001360921364    -0.003276394075
      12       -0.003353394192    -0.002094285582     0.001292094740
      13       -0.003258090410     0.002268540256    -0.000507460112
      14        0.013143097245     0.003494380365     0.004010013053


*** tstop() called on cpu-6-2.local at Wed Jun 14 15:03:13 2017
Module time:
	user time   =     296.73 seconds =       4.95 minutes
	system time =       2.98 seconds =       0.05 minutes
	total time  =        299 seconds =       4.98 minutes
Total time:
	user time   =     602.01 seconds =      10.03 minutes
	system time =       6.28 seconds =       0.10 minutes
	total time  =        608 seconds =      10.13 minutes

			-----------------------------------------
			 OPTKING 2.0: for geometry optimizations 
			  - R.A. King,  Bethel University        
			-----------------------------------------

	Previous internal coordinate definitions found.
	---Fragment 1 Geometry and Gradient---
	 H          -4.4021857009        0.1108835646        0.6016970598
	 H          -4.1309709099        3.2101162017       -0.5796836819
	 H          -3.5653484834        0.6135127574       -2.5814164084
	 C          -3.3566549172        1.3188650104       -0.6740728548
	 H           0.4763751218        2.5476423235       -1.2189807559
	 H          -0.3603033099        2.0458261884        1.9723144499
	 C          -0.5555874646        1.3320875072        0.0643554646
	 H          -0.4765867907       -2.5481206487        1.2181935873
	 H           0.3618305742       -2.0455800918       -1.9720090463
	 C           0.5558188409       -1.3321293081       -0.0638070592
	 H           3.5664782177       -0.6122717263        2.5807003032
	 H           4.4017388656       -0.1109220997       -0.6021098998
	 H           4.1318885319       -3.2093227317        0.5792896008
	 C           3.3561786296       -1.3189713377        0.6736928227
	             0.0033987962        0.0020964562       -0.0012535842
	             0.0032762936       -0.0021445980        0.0004921262
	             0.0021829867        0.0014430305        0.0033404558
	            -0.0134425279       -0.0037332858       -0.0042229365
	            -0.0033258772       -0.0038916082        0.0002916267
	            -0.0024094209       -0.0033948402       -0.0030778464
	             0.0124716358        0.0156294257        0.0059872827
	             0.0033632986        0.0039517091       -0.0003980413
	             0.0024813551        0.0033781226        0.0030950016
	            -0.0123891694       -0.0156421256       -0.0057723382
	            -0.0021389833       -0.0013609214       -0.0032763941
	            -0.0033533942       -0.0020942856        0.0012920947
	            -0.0032580904        0.0022685403       -0.0005074601
	             0.0131430972        0.0034943804        0.0040100131

	---Fragment 1 Intrafragment Coordinates---
	 - Coordinate -           - BOHR/RAD -       - ANG/DEG -
	 R(1,4)           =         2.044491	       1.081898
	 R(2,4)           =         2.045802	       1.082592
	 R(3,4)           =         2.044269	       1.081780
	 R(4,7)           =         2.896797	       1.532919
	 R(5,7)           =         2.046820	       1.083130
	 R(6,7)           =         2.046428	       1.082923
	 R(7,10)          =         2.889585	       1.529102
	 R(8,10)          =         2.046466	       1.082943
	 R(9,10)          =         2.046431	       1.082924
	 R(10,14)         =         2.895875	       1.532431
	 R(11,14)         =         2.044585	       1.081948
	 R(12,14)         =         2.044566	       1.081938
	 R(13,14)         =         2.045499	       1.082431
	 B(1,4,2)         =         1.900608	     108.896840
	 B(1,4,3)         =         1.903010	     109.034441
	 B(1,4,7)         =         1.915715	     109.762409
	 B(2,4,3)         =         1.900097	     108.867549
	 B(2,4,7)         =         1.928369	     110.487412
	 B(3,4,7)         =         1.915722	     109.762772
	 B(4,7,5)         =         1.907524	     109.293087
	 B(4,7,6)         =         1.908720	     109.361611
	 B(4,7,10)        =         1.935208	     110.879252
	 B(5,7,6)         =         1.906386	     109.227883
	 B(5,7,10)        =         1.902684	     109.015742
	 B(6,7,10)        =         1.903098	     109.039484
	 B(7,10,8)        =         1.902894	     109.027787
	 B(7,10,9)        =         1.903224	     109.046676
	 B(7,10,14)       =         1.935266	     110.882572
	 B(8,10,9)        =         1.906207	     109.217595
	 B(8,10,14)       =         1.908164	     109.329722
	 B(9,10,14)       =         1.907864	     109.312562
	 B(10,14,11)      =         1.916194	     109.789819
	 B(10,14,12)      =         1.915893	     109.772575
	 B(10,14,13)      =         1.929186	     110.534229
	 B(11,14,12)      =         1.902001	     108.976624
	 B(11,14,13)      =         1.900189	     108.872785
	 B(12,14,13)      =         1.900025	     108.863400
	 D(1,4,7,5)       =        -3.139759	    -179.894932
	 D(1,4,7,6)       =        -1.053601	     -60.366899
	 D(1,4,7,10)      =         1.045556	      59.905949
	 D(2,4,7,5)       =        -1.043504	     -59.788357
	 D(2,4,7,6)       =         1.042654	      59.739677
	 D(2,4,7,10)      =        -3.141374	    -179.987476
	 D(3,4,7,5)       =         1.052121	      60.282117
	 D(3,4,7,6)       =         3.138279	     179.810151
	 D(3,4,7,10)      =        -1.045749	     -59.917002
	 D(4,7,10,8)      =        -1.040138	     -59.595518
	 D(4,7,10,9)      =         1.039779	      59.574947
	 D(4,7,10,14)     =         3.141334	     179.985175
	 D(5,7,10,8)      =        -3.140888	    -179.959615
	 D(5,7,10,9)      =        -1.060971	     -60.789151
	 D(5,7,10,14)     =         1.040584	      59.621078
	 D(6,7,10,8)      =         1.062361	      60.868776
	 D(6,7,10,9)      =        -3.140908	    -179.960759
	 D(6,7,10,14)     =        -1.039353	     -59.550531
	 D(7,10,14,11)    =         1.045079	      59.878595
	 D(7,10,14,12)    =        -1.045388	     -59.896296
	 D(7,10,14,13)    =        -3.141549	    -179.997493
	 D(8,10,14,11)    =        -1.053502	     -60.361206
	 D(8,10,14,12)    =         3.139217	     179.863904
	 D(8,10,14,13)    =         1.043056	      59.762706
	 D(9,10,14,11)    =        -3.139311	    -179.869249
	 D(9,10,14,12)    =         1.053408	      60.355861
	 D(9,10,14,13)    =        -1.042753	     -59.745337

	Current energy   :      -158.1598605733

	Energy change for the previous step:
		Projected    :        -0.0037176216
		Actual       :        -0.0030401250

	Performing BFGS update.
	Previous computed or guess Hessian on step 1.
	Steps to be used in Hessian update: 1
	Adding user-defined constraint: Fragment 1; Coordinate 58:
		Value =    -3.141549; Fixed value    =    -3.141580
		Force =    -0.000016; Force constant =     0.525000
	Removing off-diagonal coupling between coordinate 58 and others.
	Taking RFO optimization step.
	Going to follow RFO solution 1.
	Using RFO vector 1.

	Determining step-restricting scale parameter for RS-RFO.
	Maximum step size allowed    0.10000

	 Iter      |step|        alpha        rfo_root  
	------------------------------------------------
	    0     0.14544       1.00000           1
	    1     0.11617      11.11319           1
	    2     0.10324      19.51704           1
	    3     0.10018      22.13329           1
	    4     0.10000      22.29324           1
	------------------------------------------------
	Norm of target step-size    0.10000
	Projected energy change by RFO approximation:        -0.0027471137

	Back-transformation to cartesian coordinates...
	Successfully converged to displaced geometry.

	--- Internal Coordinate Step in ANG or DEG, aJ/ANG or AJ/DEG ---
	 ---------------------------------------------------------------------------
	   Coordinate                Previous        Force       Change         New 
	   ----------                --------       ------       ------       ------
	    1 R(1,4)          =      1.081898     0.030970     0.005848     1.087746
	    2 R(2,4)          =      1.082592     0.026363     0.004759     1.087351
	    3 R(3,4)          =      1.081780     0.031616     0.005961     1.087741
	    4 R(4,7)          =      1.532919    -0.040062    -0.010952     1.521967
	    5 R(5,7)          =      1.083130     0.034362     0.006570     1.089700
	    6 R(6,7)          =      1.082923     0.035291     0.006735     1.089657
	    7 R(7,10)         =      1.529102    -0.039362    -0.009954     1.519149
	    8 R(8,10)         =      1.082943     0.035378     0.006743     1.089686
	    9 R(9,10)         =      1.082924     0.035417     0.006750     1.089675
	   10 R(10,14)        =      1.532431    -0.038268    -0.010505     1.521926
	   11 R(11,14)        =      1.081948     0.030865     0.005823     1.087771
	   12 R(12,14)        =      1.081938     0.030966     0.005841     1.087779
	   13 R(13,14)        =      1.082431     0.027259     0.004912     1.087343
	   14 B(1,4,2)        =    108.896840    -0.000155    -0.686916   108.209924
	   15 B(1,4,3)        =    109.034441    -0.000152    -0.830393   108.204048
	   16 B(1,4,7)        =    109.762409     0.000125     0.620307   110.382716
	   17 B(2,4,3)        =    108.867549    -0.000152    -0.668261   108.199288
	   18 B(2,4,7)        =    110.487412     0.000203     0.886990   111.374403
	   19 B(3,4,7)        =    109.762772     0.000122     0.608271   110.371043
	   20 B(4,7,5)        =    109.293087    -0.000024     0.156498   109.449585
	   21 B(4,7,6)        =    109.361611    -0.000029     0.116426   109.478037
	   22 B(4,7,10)       =    110.879252     0.000266     1.142992   112.022244
	   23 B(5,7,6)        =    109.227883    -0.000078    -1.207111   108.020772
	   24 B(5,7,10)       =    109.015742    -0.000070    -0.132134   108.883607
	   25 B(6,7,10)       =    109.039484    -0.000069    -0.140307   108.899177
	   26 B(7,10,8)       =    109.027787    -0.000070    -0.134411   108.893376
	   27 B(7,10,9)       =    109.046676    -0.000072    -0.151415   108.895261
	   28 B(7,10,14)      =    110.882572     0.000266     1.140367   112.022940
	   29 B(8,10,9)       =    109.217595    -0.000078    -1.202970   108.014625
	   30 B(8,10,14)      =    109.329722    -0.000026     0.135660   109.465382
	   31 B(9,10,14)      =    109.312562    -0.000024     0.149030   109.461591
	   32 B(10,14,11)     =    109.789819     0.000120     0.594863   110.384683
	   33 B(10,14,12)     =    109.772575     0.000122     0.606104   110.378679
	   34 B(10,14,13)     =    110.534229     0.000197     0.854641   111.388870
	   35 B(11,14,12)     =    108.976624    -0.000146    -0.795977   108.180647
	   36 B(11,14,13)     =    108.872785    -0.000151    -0.666830   108.205955
	   37 B(12,14,13)     =    108.863400    -0.000150    -0.662133   108.201267
	   38 D(1,4,7,5)      =   -179.894932     0.000011     0.535097  -179.359835
	   39 D(1,4,7,6)      =    -60.366899    -0.000018    -0.770407   -61.137306
	   40 D(1,4,7,10)     =     59.905949    -0.000004    -0.134987    59.770961
	   41 D(2,4,7,5)      =    -59.788357     0.000015     0.654716   -59.133640
	   42 D(2,4,7,6)      =     59.739677    -0.000015    -0.650787    59.088890
	   43 D(2,4,7,10)     =   -179.987476    -0.000000    -0.015367  -180.002843
	   44 D(3,4,7,5)      =     60.282117     0.000019     0.789232    61.071349
	   45 D(3,4,7,6)      =    179.810151    -0.000011    -0.516272   179.293879
	   46 D(3,4,7,10)     =    -59.917002     0.000004     0.119148   -59.797854
	   47 D(4,7,10,8)     =    -59.595518     0.000021     0.822431   -58.773087
[...]
	 R(13,14)         =         2.121022	       1.122396
	 B(1,4,2)         =         1.885789	     108.047756
	 B(1,4,3)         =         1.881446	     107.798939
	 B(1,4,7)         =         1.934922	     110.862845
	 B(2,4,3)         =         1.885421	     108.026687
	 B(2,4,7)         =         1.947271	     111.570399
	 B(3,4,7)         =         1.926812	     110.398176
	 B(4,7,5)         =         1.907340	     109.282557
	 B(4,7,6)         =         1.923745	     110.222474
	 B(4,7,10)        =         1.984762	     113.718476
	 B(5,7,6)         =         1.849155	     105.948782
	 B(5,7,10)        =         1.903716	     109.074917
	 B(6,7,10)        =         1.890120	     108.295917
	 B(7,10,8)        =         1.212509	      69.471673
	 B(7,10,9)        =         2.581237	     147.894006
	 B(7,10,14)       =         1.841187	     105.492226
	 B(8,10,9)        =         1.987182	     113.857168
	 B(8,10,14)       =         1.883670	     107.926329
	 B(9,10,14)       =         1.806310	     103.493947
	 B(10,14,11)      =         1.490583	      85.404103
	 B(10,14,12)      =         2.095854	     120.083597
	 B(10,14,13)      =         1.976397	     113.239180
	 B(11,14,12)      =         1.849910	     105.992059
	 B(11,14,13)      =         0.941072	      53.919481
	 B(12,14,13)      =         2.108084	     120.784314
	 D(1,4,7,5)       =        -3.115458	    -178.502613
	 D(1,4,7,6)       =        -1.090055	     -62.455571
	 D(1,4,7,10)      =         1.036112	      59.364865
	 D(2,4,7,5)       =        -1.012748	     -58.026197
	 D(2,4,7,6)       =         1.012655	      58.020845
	 D(2,4,7,10)      =         3.138822	     179.841281
	 D(3,4,7,5)       =         1.083998	      62.108531
	 D(3,4,7,6)       =         3.109401	     178.155574
	 D(3,4,7,10)      =        -1.047616	     -60.023990
	 D(4,7,10,8)      =        -1.047755	     -60.031953
	 D(4,7,10,9)      =         0.740563	      42.431128
	 D(4,7,10,14)     =        -2.858103	    -163.757252
	 D(5,7,10,8)      =         3.101813	     177.720795
	 D(5,7,10,9)      =        -1.393054	     -79.816124
	 D(5,7,10,14)     =         1.291465	      73.995497
	 D(6,7,10,8)      =         1.096961	      62.851212
	 D(6,7,10,9)      =         2.885279	     165.314293
	 D(6,7,10,14)     =        -0.713387	     -40.874086
	 D(7,10,14,11)    =         0.175567	      10.059276
	 D(7,10,14,12)    =        -1.671586	     -95.774829
	 D(7,10,14,13)    =         1.001994	      57.410030
	 D(8,10,14,11)    =        -1.098083	     -62.915531
	 D(8,10,14,12)    =        -2.945237	    -168.749636
	 D(8,10,14,13)    =        -0.271657	     -15.564777
	 D(9,10,14,11)    =         3.073541	     176.100904
	 D(9,10,14,12)    =         1.226387	      70.266798
	 D(9,10,14,13)    =        -2.383218	    -136.548342

	Current energy   :      -157.9605102805

	Energy change for the previous step:
		Projected    :        -0.4110639501
		Actual       :         0.0093283619

	Performing BFGS update.
	Previous computed or guess Hessian on step 1.
	Steps to be used in Hessian update: 49 48
	Adding user-defined constraint: Fragment 1; Coordinate 58:
		Value =     1.001994; Fixed value    =    -3.141580
		Force =    -7.147665; Force constant =     1.725000
	Removing off-diagonal coupling between coordinate 58 and others.
	Taking RFO optimization step.
	Going to follow RFO solution 1.
	Rejecting RFO root 1 because normalization gives large value.
	Rejecting RFO root 2 because normalization gives large value.
	Using RFO vector 3.

	Determining step-restricting scale parameter for RS-RFO.
	Maximum step size allowed    0.10000

	 Iter      |step|        alpha        rfo_root  
	------------------------------------------------
	    0    20.06184       1.00000           3
	    1     7.98592       1.64864           3
	    2     2.58005       2.35161           3
	    3     0.87505       2.84326           3
	    4     0.47687       3.26537           3
	    5     0.31784       4.17392           3
	    6     0.23153       7.03627           3
	    7    54.59992      16.80195           3
	    8     1.00000       1.30020           2
	    9    30.58536       0.11756          64
	   10    15.34969       0.23515          64
	   11     7.73897       0.47072          64
	   12     3.94120       0.94482          64
	   13     2.04582       1.91031          64
	   14     1.09411       3.91800          64
	   15     0.60878       8.18005          64
	   16     0.35612      17.20009          64
	   17     3.75177      35.23656          64
	   18     0.27695      27.40223          64
	   19     0.40398      14.34460          64
	   20     0.79525      29.69406          64
	   21     0.32901      28.39269          64
	   22     0.27291      26.64080          64
	   23    20.47241   -3410.44285           1
	   24    20.30261 -409178.79471           1
	Failed to converge alpha.  Doing simple step scaling instead.
	   25     3.73384       1.00000          64
	------------------------------------------------
	Change in coordinate exceeds step limit of    0.10000.
	Scaling displacements by    0.02678
	Norm of target step-size    0.10000
	Projected energy change by RFO approximation:         0.4038558763

	Back-transformation to cartesian coordinates...
	Could not converge backtransformation.
	Using first guess instead.

	--- Internal Coordinate Step in ANG or DEG, aJ/ANG or AJ/DEG ---
	 ---------------------------------------------------------------------------
	   Coordinate                Previous        Force       Change         New 
	   ----------                --------       ------       ------       ------
	    1 R(1,4)          =      1.093609    -0.018284     0.002329     1.095938
	    2 R(2,4)          =      1.085912     0.005645     0.002085     1.087997
	    3 R(3,4)          =      1.093179    -0.033166     0.002344     1.095523
	    4 R(4,7)          =      1.519893     0.004904    -0.003891     1.516002
	    5 R(5,7)          =      1.099748     0.008800     0.002981     1.102729
	    6 R(6,7)          =      1.095901    -0.043137     0.002987     1.098889
	    7 R(7,10)         =      1.527511     0.419688     0.001480     1.528992
	    8 R(8,10)         =      1.091873     0.072218     0.000801     1.092674
	    9 R(9,10)         =      1.086717    -0.040116     0.004352     1.091068
	   10 R(10,14)        =      1.514886     0.400894    -0.000116     1.514770
	   11 R(11,14)        =      1.123409     0.083579    -0.001150     1.122258
	   12 R(12,14)        =      1.085720    -0.059657    -0.002353     1.083367
	   13 R(13,14)        =      1.122396     0.001419     0.001752     1.124149
	   14 B(1,4,2)        =    108.047756     0.000013     0.093600   108.141357
	   15 B(1,4,3)        =    107.798939     0.000003     0.125967   107.924906
	   16 B(1,4,7)        =    110.862845     0.000014    -0.193308   110.669537
	   17 B(2,4,3)        =    108.026687     0.000048     0.136184   108.162871
	   18 B(2,4,7)        =    111.570399    -0.000054    -0.076713   111.493686
	   19 B(3,4,7)        =    110.398176    -0.000021    -0.068434   110.329742
	   20 B(4,7,5)        =    109.282557    -0.000475    -0.075331   109.207226
	   21 B(4,7,6)        =    110.222474    -0.000102    -0.128843   110.093631
	   22 B(4,7,10)       =    113.718476     0.000203     0.347034   114.065510
	   23 B(5,7,6)        =    105.948782     0.000039     0.224778   106.173560
	   24 B(5,7,10)       =    109.074917     0.000578    -0.235496   108.839422
	   25 B(6,7,10)       =    108.295917    -0.000243    -0.139892   108.156024
	   26 B(7,10,8)       =     69.471673    -0.059016     1.079315    70.550987
	   27 B(7,10,9)       =    147.894006     0.051011    -1.119059   146.774946
	   28 B(7,10,14)      =    105.492226    -0.020505     0.448212   105.940438
	   29 B(8,10,9)       =    113.857168     0.030183    -0.306583   113.550585
	   30 B(8,10,14)      =    107.926329    -0.015329     0.070816   107.997145
	   31 B(9,10,14)      =    103.493947    -0.012537     0.268313   103.762260
	   32 B(10,14,11)     =     85.404103    -0.039937     0.599844    86.003947
	   33 B(10,14,12)     =    120.083597    -0.032052     0.529041   120.612638
	   34 B(10,14,13)     =    113.239180     0.005083    -0.010002   113.229178
	   35 B(11,14,12)     =    105.992059     0.003137    -0.087344   105.904715
	   36 B(11,14,13)     =     53.919481    -0.080604     1.513676    55.433157
	   37 B(12,14,13)     =    120.784314    -0.038089     0.534278   121.318592
	   38 D(1,4,7,5)      =   -178.502613     0.000061    -0.015468  -178.518081
	   39 D(1,4,7,6)      =    -62.455571    -0.000005     0.138989   -62.316582
	   40 D(1,4,7,10)     =     59.364865    -0.000062     0.105573    59.470438
	   41 D(2,4,7,5)      =    -58.026197     0.000059    -0.079897   -58.106095
	   42 D(2,4,7,6)      =     58.020845    -0.000007     0.074560    58.095405
	   43 D(2,4,7,10)     =    179.841281    -0.000064     0.041143   179.882425
	   44 D(3,4,7,5)      =     62.108531     0.000061    -0.004731    62.103800
	   45 D(3,4,7,6)      =    178.155574    -0.000005     0.149726   178.305300
	   46 D(3,4,7,10)     =    -60.023990    -0.000062     0.116310   -59.907680
	   47 D(4,7,10,8)     =    -60.031953     0.001102    -0.421355   -60.453308
	   48 D(4,7,10,9)     =     42.431128    -0.007210     0.662333    43.093460
	   49 D(4,7,10,14)    =   -163.757252     0.006047    -0.577440  -164.334692
	   50 D(5,7,10,8)     =    177.720795     0.001113    -0.387644   177.333152
	   51 D(5,7,10,9)     =    -79.816124    -0.007200     0.696044   -79.120080
	   52 D(5,7,10,14)    =     73.995497     0.006058    -0.543728    73.451768
	   53 D(6,7,10,8)     =     62.851212     0.001062    -0.455337    62.395875
	   54 D(6,7,10,9)     =    165.314293    -0.007250     0.628351   165.942644
	   55 D(6,7,10,14)    =    -40.874086     0.006008    -0.611422   -41.485508
	   56 D(7,10,14,11)   =     10.059276    -0.015356     1.139518    11.198794
	   57 D(7,10,14,12)   =    -95.774829    -0.010289     0.841240   -94.933589
	   58 D(7,10,14,13)   =     57.410030    -0.044151     3.329564    60.739595
	   59 D(8,10,14,11)   =    -62.915531     0.000967    -0.143452   -63.058983
	   60 D(8,10,14,12)   =   -168.749636     0.006034    -0.441730  -169.191366
	   61 D(8,10,14,13)   =    -15.564777    -0.027828     2.046595   -13.518182
	   62 D(9,10,14,11)   =    176.100904    -0.003849     0.036374   176.137277
	   63 D(9,10,14,12)   =     70.266798     0.001218    -0.261904    70.004894
	   64 D(9,10,14,13)   =   -136.548342    -0.032644     2.226420  -134.321922
	 ---------------------------------------------------------------------------
	Successfully symmetrized geometry.
	 Forces used to impose fixed constraints are not included.
	  Forces zeroed: 58 

  ==> Convergence Check <==

  Measures of convergence in internal coordinates in au.
  Criteria marked as inactive (o), active & met (*), and active & unmet ( ).
  ---------------------------------------------------------------------------------------------
   Step     Total Energy     Delta E     MAX Force     RMS Force      MAX Disp      RMS Disp   
  ---------------------------------------------------------------------------------------------
    Convergence Criteria    1.00e-06 *    3.00e-04 *             o    1.20e-03 *             o
  ---------------------------------------------------------------------------------------------
     50    -157.96051028    9.33e-03      1.87e+00      4.22e-01 o    5.81e-02      1.25e-02 o  ~
  ---------------------------------------------------------------------------------------------


  **** Optimization has failed! (in 50 steps) ****

  ==> Optimization Summary <==

  Measures of convergence in internal coordinates in au.
  --------------------------------------------------------------------------------------------------------------- ~
   Step         Total Energy             Delta E       MAX Force       RMS Force        MAX Disp        RMS Disp  ~
  --------------------------------------------------------------------------------------------------------------- ~
      1    -158.156820448360   -158.156820448360      0.01306066      0.00562103      0.02505161      0.01250518  ~
      2    -158.159860573311     -0.003040124950      0.00486268      0.00224361      0.02832514      0.01252364  ~
      3    -158.160843504885     -0.000982931575      0.00145028      0.00056966      0.02653451      0.00941813  ~
      4    -158.161008908114     -0.000165403229      0.00041675      0.00012995      0.00367359      0.00130179  ~
      5    -158.161012489086     -0.000003580973      1.42102169      0.28931803      0.06134310      0.01249470  ~
      6    -158.160827673778      0.000184815308      1.46438316      0.29814562      0.06134245      0.01249614  ~
      7    -158.160272936195      0.000554737583      1.50694951      0.30677507      0.06134995      0.01249654  ~
      8    -158.159350281925      0.000922654270      1.54900827      0.31523575      0.06138552      0.01249600  ~
      9    -158.158064180840      0.001286101085      1.59030145      0.32350081      0.06141634      0.01249614  ~
     10    -158.156412508399      0.001651672441      1.63079955      0.33156685      0.06145250      0.01249666  ~
     11    -158.154395750607      0.002016757792      1.67044876      0.33942824      0.06148259      0.01249213  ~
     12    -158.152024439110      0.002371311497      1.70917160      0.34707690      0.06151846      0.01249131  ~
     13    -158.149290656492      0.002733782619      1.74688656      0.35450482      0.06155536      0.01249067  ~
     14    -158.146196083867      0.003094572625      1.78349491      0.36170201      0.06159357      0.01249044  ~
     15    -158.142743061681      0.003453022185      1.81888622      0.36865722      0.06162764      0.01248989  ~
     16    -158.138935403561      0.003807658121      1.85294137      0.37535850      0.03420545      0.00692885  ~
     17    -158.136665195181      0.002270208379      1.89474546      0.38373728      0.05385921      0.01245132  ~
     18    -158.135552269336      0.001112925845      1.93360799      0.39298677      0.05617566      0.01247317  ~
     19    -158.132128958170      0.003423311166      1.97085090      0.39996815      0.05320396      0.01250621  ~
     20    -158.127439862249      0.004689095921      1.99926417      0.40603286      0.06130843      0.01248841  ~
     21    -158.122594412249      0.004845450001      2.02871131      0.41179214      0.06109238      0.01249039  ~
     22    -158.117464360710      0.005130051539      2.05687680      0.41731429      0.06114403      0.01250894  ~
     23    -158.111623983483      0.005840377227      2.08017306      0.42221149      0.02729404      0.00553997  ~
     24    -158.108986174737      0.002637808746      2.11818140      0.42996033      0.06033411      0.01248745  ~
     25    -158.103284074642      0.005702100095      2.14254834      0.43481442      0.05786716      0.01251585  ~
     26    -158.096610227503      0.006673847140      2.15991647      0.43892909      0.04943103      0.01248002  ~
     27    -158.092191900664      0.004418326839      2.19143232      0.44480550      0.06123383      0.01250659  ~
     28    -158.085203666425      0.006988234239      2.20779404      0.44846148      0.05720045      0.01252806  ~
     29    -158.077612195405      0.007591471020      2.21952035      0.45170644      0.06112005      0.01251073  ~
     30    -158.070255674135      0.007356521270      2.23269984      0.45482086      0.04357853      0.01249072  ~
     31    -158.068111293043      0.002144381092      2.27274276      0.46217153      0.05907693      0.01249968  ~
     32    -158.060843525444      0.007267767599      2.28688179      0.46529737      0.03664620      0.01252552  ~
     33    -158.058022394675      0.002821130769      2.31842386      0.47296480      0.05787916      0.01250875  ~
     34    -158.066288093054     -0.008265698379      2.40505661      0.48948803      0.06065287      0.01250127  ~
     35    -158.057861815674      0.008426277381      2.40939612      0.49132780      0.05420987      0.01249962  ~
     36    -158.051416902925      0.006444912748      2.42745964      0.49484583      0.06112586      0.01251138  ~
     37    -158.043244589920      0.008172313006      2.43193045      0.49646678      0.06098236      0.01252133  ~
     38    -158.034620678333      0.008623911587      2.43393505      0.49772937      0.06104339      0.01250552  ~
     39    -158.025679451858      0.008941226475      2.43396277      0.49866823      0.01927176      0.00397531  ~
     40    -158.022403244118      0.003276207740      2.46066433      0.50463480      0.06069048      0.01249959  ~
     41    -158.013314131605      0.009089112513      2.45856694      0.50518662      0.05981037      0.01249035  ~
     42    -158.023110773152     -0.009796641547      2.55072747      0.52251304      0.06012827      0.01248052  ~
     43    -158.014193261322      0.008917511830      2.54350291      0.52245234      0.05532967      0.01248665  ~
     44    -158.006784589035      0.007408672287      2.54151527      0.52311344      0.05393367      0.01253992  ~
     45    -157.997175263263      0.009609325772      2.53694550      0.52349864      0.06036819      0.01250038  ~
     46    -157.987410647854      0.009764615410      2.52746754      0.52286297      0.06018111      0.01250220  ~
     47    -157.977560824460      0.009849823394      2.51755385      0.52208467      0.06017188      0.01250405  ~
     48    -157.967324560363      0.010236264096      2.50609408      0.52103603      0.03016910      0.01255484  ~
     49    -157.969838642434     -0.002514082071      2.53956837      0.52845778      0.05894983      0.01251575  ~
     50    -157.960510280538      0.009328361896      2.52965525      0.52748373      0.05811186      0.01248879  ~
  --------------------------------------------------------------------------------------------------------------- ~

	Writing optimization data to binary file.
			--------------------------
			 OPTKING Finished Execution 
			--------------------------

    Structure for next step:
    Molecular point group: c1
    Full point group: C1

    Geometry (in Angstrom), charge = 0, multiplicity = 1:

    H           -2.304501493246    -0.080706768321     0.264036120708
    H           -2.181144364805     1.660735340724    -0.017928865576
    H           -1.918143427624     0.531780861824    -1.353329377386
    C           -1.755744230910     0.694865280240    -0.282254679654
    H            0.248046965122     1.437917696365    -0.498877533160
    H           -0.115199561603     0.826206178834     1.111248407062
    C           -0.276073441632     0.632223571212     0.041647174111
    H           -0.412551689178    -0.868366963376     0.427369673480
    H            0.479673924383    -1.511983712302    -1.030968474328
    C            0.381941210654    -0.703819165857    -0.304505773347
    H            1.323993368228     0.185454200948     0.975646468746
    H            2.616192445095    -0.403167142038    -0.065149181390
    H            1.594110537141    -0.646395698786     1.547198803052
    C            1.706106656702    -0.718297003442     0.430956430133

	Cleaning optimization helper files.

PsiException: Could not converge geometry optimization in 50 iterations.


Traceback (most recent call last):
  File "/cbio/jclab/home/chayas/anaconda/envs/py35/bin/psi4", line 248, in <module>
    exec(content)
  File "<string>", line 45, in <module>
  File "/cbio/jclab/home/chayas/anaconda/envs/py35/lib//python3.5/site-packages/psi4/driver/driver.py", line 1160, in optimize
    raise ConvergenceError("""geometry optimization""", n - 1)

ConvergenceError: Could not converge geometry optimization in 50 iterations.

*** Psi4 encountered an error. Buy a developer more coffee!
*** Resources and help at github.com/psi4/psi4.
