
    -----------------------------------------------------------------------
          Psi4: An Open-Source Ab Initio Electronic Structure Package
                               Psi4 1.1 release

                         Git: Rev {HEAD} add49b9 


    R. M. Parrish, L. A. Burns, D. G. A. Smith, A. C. Simmonett,
    A. E. DePrince III, E. G. Hohenstein, U. Bozkaya, A. Yu. Sokolov,
    R. Di Remigio, R. M. Richard, J. F. Gonthier, A. M. James,
    H. R. McAlexander, A. Kumar, M. Saitow, X. Wang, B. P. Pritchard,
    P. Verma, H. F. Schaefer III, K. Patkowski, R. A. King, E. F. Valeev,
    F. A. Evangelista, J. M. Turney, T. D. Crawford, and C. D. Sherrill,
    J. Chem. Theory Comput. in press (2017).
    (doi: 10.1021/acs.jctc.7b00174)

    -----------------------------------------------------------------------


    Psi4 started on: Wednesday, 14 June 2017 02:19PM

    Process ID:   3188
    PSIDATADIR: /cbio/jclab/home/chayas/anaconda/envs/py35/share/psi4
    Memory:     500.0 MiB
    Threads:    1
    
  ==> Input File <==

--------------------------------------------------------------------------

memory 5000 mb

molecule butane {
  symmetry C1
  0 1 
  H      1.552   1.757   -8.117
  H      1.991   2.020   -9.788
  H      1.849   0.394   -9.167
  C      2.142   1.395   -8.932
  H      4.169   2.051   -9.210
  H      3.731   1.788   -7.539
  C      3.631   1.416   -8.537
  H      3.665   -0.647   -7.940
  H      4.104   -0.384   -9.610
  C      4.203   -0.012   -8.612
  H      6.088   -0.983   -8.270
  H      5.791   0.381   -7.220
  H      6.230   0.644   -8.890
  C      5.691   0.009   -8.218
  units Angstrom
}

dih_string = "10 7 4 3 0.001"
set optking fixed_dihedral = $dih_string

optimize('MP2/aug-cc-pvtz')
--------------------------------------------------------------------------

  Memory set to   4.657 GiB by Python driver.
gradient() will perform analytic gradient computation.

*** tstart() called on gpu-2-7.local
*** at Wed Jun 14 14:19:21 2017

    SCF Algorithm Type (re)set to DF.

*** tstart() called on gpu-2-7.local
*** at Wed Jun 14 14:19:21 2017

   => Loading Basis Set <=

    Name: AUG-CC-PVTZ
    Role: ORBITAL
    Keyword: BASIS
    atoms 1-3, 5-6, 8-9, 11-13 entry H          line    34 file /cbio/jclab/home/chayas/anaconda/envs/py35/share/psi4/basis/aug-cc-pvtz.gbs 
    atoms 4, 7, 10, 14         entry C          line   221 file /cbio/jclab/home/chayas/anaconda/envs/py35/share/psi4/basis/aug-cc-pvtz.gbs 


         ---------------------------------------------------------
                                   SCF
            by Justin Turney, Rob Parrish, and Andy Simmonett
                              RHF Reference
                        1 Threads,   4768 MiB Core
         ---------------------------------------------------------

  ==> Geometry <==

    Molecular point group: c1
    Full point group: C1

    Geometry (in Angstrom), charge = 0, multiplicity = 1:

       Center              X                  Y                   Z               Mass       
    ------------   -----------------  -----------------  -----------------  -----------------
           H         -2.364793382205     1.054982647118     0.457810735087     1.007825032070
           H         -1.925793382205     1.317982647118    -1.213189264913     1.007825032070
           H         -2.067793382205    -0.308017352882    -0.592189264913     1.007825032070
           C         -1.774793382205     0.692982647118    -0.357189264913    12.000000000000
           H          0.252206617795     1.348982647118    -0.635189264913     1.007825032070
           H         -0.185793382205     1.085982647118     1.035810735087     1.007825032070
           C         -0.285793382205     0.713982647118     0.037810735087    12.000000000000
           H         -0.251793382205    -1.349017352882     0.634810735087     1.007825032070
           H          0.187206617795    -1.086017352882    -1.035189264913     1.007825032070
           C          0.286206617795    -0.714017352882    -0.037189264913    12.000000000000
           H          2.171206617795    -1.685017352882     0.304810735087     1.007825032070
           H          1.874206617795    -0.321017352882     1.354810735087     1.007825032070
           H          2.313206617795    -0.058017352882    -0.315189264913     1.007825032070
           C          1.774206617795    -0.693017352882     0.356810735087    12.000000000000

  Running in c1 symmetry.

  Rotational constants: A =      0.76948  B =      0.12464  C =      0.11638 [cm^-1]
  Rotational constants: A =  23068.56873  B =   3736.72608  C =   3488.99022 [MHz]
  Nuclear repulsion =  131.852843164604081

  Charge       = 0
  Multiplicity = 1
  Electrons    = 34
  Nalpha       = 17
  Nbeta        = 17

  ==> Algorithm <==

  SCF Algorithm Type is DF.
  DIIS enabled.
  MOM disabled.
  Fractional occupation disabled.
  Guess Type is SAD.
  Energy threshold   = 1.00e-10
  Density threshold  = 1.00e-10
  Integral threshold = 0.00e+00

  ==> Primary Basis <==

  Basis Set: AUG-CC-PVTZ
    Blend: AUG-CC-PVTZ
    Number of shells: 146
    Number of basis function: 414
    Number of Cartesian functions: 470
    Spherical Harmonics?: true
    Max angular momentum: 3

   => Loading Basis Set <=

    Name: (AUG-CC-PVTZ AUX)
    Role: JKFIT
    Keyword: DF_BASIS_SCF
    atoms 1-3, 5-6, 8-9, 11-13 entry H          line    69 file /cbio/jclab/home/chayas/anaconda/envs/py35/share/psi4/basis/aug-cc-pvtz-jkfit.gbs 
    atoms 4, 7, 10, 14         entry C          line   161 file /cbio/jclab/home/chayas/anaconda/envs/py35/share/psi4/basis/aug-cc-pvtz-jkfit.gbs 

  ==> Pre-Iterations <==

   -------------------------------------------------------
    Irrep   Nso     Nmo     Nalpha   Nbeta   Ndocc  Nsocc
   -------------------------------------------------------
     A        414     414       0       0       0       0
   -------------------------------------------------------
    Total     414     414      17      17      17       0
   -------------------------------------------------------

  ==> Integral Setup <==

  ==> DFJK: Density-Fitted J/K Matrices <==

    J tasked:                  Yes
    K tasked:                  Yes
    wK tasked:                  No
    OpenMP threads:              1
    Integrals threads:           1
    Memory (MB):              3576
    Algorithm:                Core
    Integral Cache:           NONE
    Schwarz Cutoff:          1E-12
    Fitting Condition:       1E-12

   => Auxiliary Basis Set <=

  Basis Set: (AUG-CC-PVTZ AUX)
    Blend: AUG-CC-PVTZ-JKFIT
    Number of shells: 260
    Number of basis function: 876
    Number of Cartesian functions: 1074
    Spherical Harmonics?: true
    Max angular momentum: 4

  Minimum eigenvalue in the overlap matrix is 8.3382519359E-06.
  Using Symmetric Orthogonalization.

  SCF Guess: Superposition of Atomic Densities via on-the-fly atomic UHF.

  ==> Iterations <==

                           Total Energy        Delta E     RMS |[F,P]|

   @DF-RHF iter   0:  -159.13841834780618   -1.59138e+02   9.72032e-03 
   @DF-RHF iter   1:  -157.25246071802636    1.88596e+00   8.09086e-04 
   @DF-RHF iter   2:  -157.33833631232537   -8.58756e-02   2.20809e-04 DIIS
   @DF-RHF iter   3:  -157.34654848706765   -8.21217e-03   6.01803e-05 DIIS
   @DF-RHF iter   4:  -157.34714133772164   -5.92851e-04   1.65349e-05 DIIS
   @DF-RHF iter   5:  -157.34718669477013   -4.53570e-05   4.49010e-06 DIIS
   @DF-RHF iter   6:  -157.34719006834723   -3.37358e-06   9.72278e-07 DIIS
   @DF-RHF iter   7:  -157.34719022800223   -1.59655e-07   1.72955e-07 DIIS
   @DF-RHF iter   8:  -157.34719023448216   -6.47992e-09   3.76662e-08 DIIS
   @DF-RHF iter   9:  -157.34719023478823   -3.06073e-10   1.07165e-08 DIIS
   @DF-RHF iter  10:  -157.34719023481074   -2.25100e-11   2.97337e-09 DIIS
   @DF-RHF iter  11:  -157.34719023481114   -3.97904e-13   5.82443e-10 DIIS
   @DF-RHF iter  12:  -157.34719023481381   -2.67164e-12   1.19875e-10 DIIS
   @DF-RHF iter  13:  -157.34719023481372    8.52651e-14   3.47066e-11 DIIS

  ==> Post-Iterations <==

    Orbital Energies (a.u.)
    -----------------------

    Doubly Occupied:                                                      

       1A    -11.207363     2A    -11.205339     3A    -11.198157  
       4A    -11.196801     5A     -1.070733     6A     -0.980892  
       7A     -0.861137     8A     -0.795676     9A     -0.646200  
      10A     -0.587285    11A     -0.577779    12A     -0.571819  
      13A     -0.511200    14A     -0.505169    15A     -0.470522  
      16A     -0.470257    17A     -0.440304  

    Virtual:                                                              

      18A      0.032373    19A      0.037833    20A      0.039765  
      21A      0.039874    22A      0.058242    23A      0.059576  
      24A      0.060572    25A      0.061253    26A      0.075555  
      27A      0.083460    28A      0.103756    29A      0.112931  
      30A      0.122284    31A      0.130513    32A      0.140018  
      33A      0.142096    34A      0.143282    35A      0.143601  
      36A      0.148448    37A      0.161346    38A      0.165515  
      39A      0.168763    40A      0.174618    41A      0.194463  
      42A      0.201209    43A      0.220551    44A      0.220990  
      45A      0.241312    46A      0.250989    47A      0.256520  
      48A      0.264986    49A      0.282222    50A      0.282271  
      51A      0.291047    52A      0.309504    53A      0.319111  
      54A      0.337566    55A      0.343197    56A      0.343815  
      57A      0.356685    58A      0.359529    59A      0.360595  
      60A      0.365286    61A      0.369503    62A      0.371838  
      63A      0.384820    64A      0.389168    65A      0.390150  
      66A      0.392911    67A      0.393953    68A      0.395848  
      69A      0.406682    70A      0.409606    71A      0.414399  
      72A      0.434775    73A      0.438142    74A      0.444331  
      75A      0.447293    76A      0.463938    77A      0.465669  
      78A      0.466048    79A      0.467853    80A      0.487145  
      81A      0.490781    82A      0.500868    83A      0.511051  
      84A      0.514898    85A      0.519558    86A      0.520763  
      87A      0.524996    88A      0.534076    89A      0.541027  
      90A      0.542987    91A      0.551077    92A      0.554913  
      93A      0.557902    94A      0.580629    95A      0.584989  
      96A      0.588133    97A      0.589451    98A      0.619465  
      99A      0.621497   100A      0.634684   101A      0.640915  
     102A      0.650727   103A      0.675290   104A      0.681739  
     105A      0.698195   106A      0.715474   107A      0.749203  
     108A      0.774774   109A      0.790081   110A      0.819257  
     111A      0.826236   112A      0.827822   113A      0.832626  
     114A      0.837662   115A      0.845380   116A      0.855951  
     117A      0.868905   118A      0.879292   119A      0.886535  
     120A      0.889656   121A      0.896576   122A      0.896942  
     123A      0.917071   124A      0.920368   125A      0.921365  
     126A      0.926489   127A      0.933395   128A      0.940991  
     129A      0.950530   130A      0.963773   131A      0.968709  
     132A      0.970776   133A      0.981882   134A      0.982878  
     135A      0.991587   136A      1.017907   137A      1.025232  
     138A      1.041289   139A      1.049113   140A      1.054826  
     141A      1.073161   142A      1.080655   143A      1.085159  
     144A      1.087484   145A      1.105722   146A      1.106881  
     147A      1.120365   148A      1.144900   149A      1.152482  
     150A      1.159253   151A      1.161249   152A      1.168573  
     153A      1.187029   154A      1.200258   155A      1.211339  
     156A      1.240278   157A      1.241873   158A      1.246752  
     159A      1.257316   160A      1.260822   161A      1.263382  
     162A      1.271243   163A      1.278111   164A      1.290315  
     165A      1.299719   166A      1.306713   167A      1.312339  
     168A      1.322280   169A      1.334221   170A      1.357798  
     171A      1.364374   172A      1.392043   173A      1.396937  
     174A      1.423468   175A      1.435525   176A      1.457440  
     177A      1.475500   178A      1.481677   179A      1.483340  
     180A      1.487903   181A      1.512124   182A      1.529195  
     183A      1.539435   184A      1.548224   185A      1.575084  
     186A      1.597729   187A      1.598765   188A      1.622951  
     189A      1.624166   190A      1.641562   191A      1.650680  
     192A      1.676535   193A      1.678139   194A      1.698023  
     195A      1.703503   196A      1.708707   197A      1.709106  
     198A      1.719382   199A      1.725052   200A      1.730241  
     201A      1.735218   202A      1.753856   203A      1.754414  
     204A      1.766125   205A      1.769141   206A      1.770562  
     207A      1.785868   208A      1.805901   209A      1.818155  
     210A      1.847457   211A      1.847603   212A      1.879206  
     213A      1.904234   214A      1.917165   215A      1.945795  
     216A      1.971930   217A      1.972694   218A      1.976833  
     219A      1.978194   220A      2.005525   221A      2.015339  
     222A      2.019383   223A      2.038573   224A      2.046141  
     225A      2.055720   226A      2.063858   227A      2.074901  
     228A      2.092392   229A      2.098737   230A      2.140440  
     231A      2.167144   232A      2.194434   233A      2.197609  
     234A      2.223511   235A      2.227727   236A      2.263194  
     237A      2.273706   238A      2.284298   239A      2.288977  
     240A      2.304785   241A      2.321215   242A      2.349570  
     243A      2.372502   244A      2.372659   245A      2.383916  
     246A      2.411486   247A      2.443074   248A      2.460400  
     249A      2.474069   250A      2.479872   251A      2.501033  
     252A      2.554619   253A      2.585670   254A      2.610951  
     255A      2.621121   256A      2.674839   257A      2.783562  
     258A      2.860697   259A      2.945002   260A      3.028852  
     261A      3.173787   262A      3.252066   263A      3.278702  
     264A      3.361055   265A      3.400606   266A      3.416072  
     267A      3.437812   268A      3.449870   269A      3.473677  
     270A      3.476447   271A      3.530002   272A      3.555295  
     273A      3.575979   274A      3.579650   275A      3.590785  
     276A      3.599968   277A      3.629069   278A      3.673774  
     279A      3.674617   280A      3.695993   281A      3.696665  
     282A      3.703124   283A      3.716357   284A      3.734635  
     285A      3.750896   286A      3.781314   287A      3.799705  
     288A      3.800024   289A      3.830166   290A      3.847344  
     291A      3.851997   292A      3.860176   293A      3.883223  
     294A      3.884125   295A      3.916120   296A      3.929254  
     297A      3.954496   298A      3.984982   299A      3.988232  
     300A      4.006805   301A      4.008685   302A      4.013351  
     303A      4.033723   304A      4.036630   305A      4.066092  
     306A      4.070047   307A      4.075791   308A      4.103106  
     309A      4.162424   310A      4.185958   311A      4.201199  
     312A      4.229838   313A      4.232969   314A      4.253017  
     315A      4.256942   316A      4.278533   317A      4.284583  
     318A      4.287459   319A      4.317706   320A      4.320689  
     321A      4.362299   322A      4.369227   323A      4.389661  
     324A      4.448082   325A      4.460415   326A      4.475695  
     327A      4.537451   328A      4.548399   329A      4.553073  
     330A      4.576476   331A      4.608552   332A      4.642434  
     333A      4.668670   334A      4.678553   335A      4.692559  
     336A      4.720324   337A      4.741314   338A      4.758638  
     339A      4.774633   340A      4.810240   341A      4.822992  
     342A      4.874831   343A      4.879687   344A      4.891409  
     345A      4.900768   346A      4.925347   347A      4.948804  
     348A      4.977662   349A      4.980227   350A      5.014220  
     351A      5.015251   352A      5.051717   353A      5.064517  
     354A      5.117861   355A      5.136897   356A      5.155283  
     357A      5.201540   358A      5.215700   359A      5.224753  
     360A      5.255457   361A      5.263776   362A      5.282457  
     363A      5.296069   364A      5.341916   365A      5.351432  
     366A      5.377276   367A      5.380813   368A      5.423469  
     369A      5.447500   370A      5.448311   371A      5.468866  
     372A      5.498567   373A      5.523536   374A      5.531653  
     375A      5.547522   376A      5.572145   377A      5.605477  
     378A      5.643923   379A      5.655121   380A      5.687412  
     381A      5.716880   382A      5.744015   383A      5.767084  
     384A      5.800939   385A      5.824472   386A      5.878436  
     387A      5.894669   388A      5.959787   389A      5.994056  
     390A      6.047824   391A      6.056411   392A      6.137567  
     393A      6.159296   394A      6.178288   395A      6.226603  
     396A      6.239216   397A      6.276448   398A      6.338611  
     399A      6.346881   400A      6.377272   401A      6.420317  
     402A      6.503136   403A      6.562606   404A      6.637223  
     405A      6.756949   406A      6.777088   407A      6.820554  
     408A      6.850394   409A      6.878356   410A      6.979235  
     411A     18.029054   412A     18.225032   413A     18.888344  
     414A     20.036849  

    Final Occupation by Irrep:
              A 
    DOCC [    17 ]

  Energy converged.

  @DF-RHF Final Energy:  -157.34719023481372

   => Energetics <=

    Nuclear Repulsion Energy =            131.8528431646040815
    One-Electron Energy =                -471.8068019777437030
    Two-Electron Energy =                 182.6067685783258696
    DFT Exchange-Correlation Energy =       0.0000000000000000
    Empirical Dispersion Energy =           0.0000000000000000
    PCM Polarization Energy =               0.0000000000000000
    EFP Energy =                            0.0000000000000000
    Total Energy =                       -157.3471902348137235



Properties will be evaluated at   0.000000,   0.000000,   0.000000 Bohr

Properties computed using the SCF density matrix

  Nuclear Dipole Moment: (a.u.)
     X:     0.0019      Y:     0.0008      Z:    -0.0027

  Electronic Dipole Moment: (a.u.)
     X:    -0.0019      Y:    -0.0011      Z:     0.0031

  Dipole Moment: (a.u.)
     X:     0.0000      Y:    -0.0003      Z:     0.0004     Total:     0.0005

  Dipole Moment: (Debye)
     X:     0.0000      Y:    -0.0008      Z:     0.0010     Total:     0.0013


*** tstop() called on gpu-2-7.local at Wed Jun 14 14:20:55 2017
Module time:
	user time   =      92.24 seconds =       1.54 minutes
	system time =       0.81 seconds =       0.01 minutes
	total time  =         94 seconds =       1.57 minutes
Total time:
	user time   =      92.25 seconds =       1.54 minutes
	system time =       0.81 seconds =       0.01 minutes
	total time  =         94 seconds =       1.57 minutes

  //>>>>>>>>>>>>>>>>>>>>>>>>>>>>>>>>>>>//
  //               DFMP2               //
  //<<<<<<<<<<<<<<<<<<<<<<<<<<<<<<<<<<<//

   => Loading Basis Set <=

    Name: (AUG-CC-PVTZ AUX)
    Role: RIFIT
    Keyword: DF_BASIS_MP2
    atoms 1-3, 5-6, 8-9, 11-13 entry H          line    29 file /cbio/jclab/home/chayas/anaconda/envs/py35/share/psi4/basis/aug-cc-pvtz-ri.gbs 
    atoms 4, 7, 10, 14         entry C          line   147 file /cbio/jclab/home/chayas/anaconda/envs/py35/share/psi4/basis/aug-cc-pvtz-ri.gbs 

	 --------------------------------------------------------
	                          DF-MP2                         
	      2nd-Order Density-Fitted Moller-Plesset Theory     
	              RMP2 Wavefunction,   1 Threads             
	                                                         
	        Rob Parrish, Justin Turney, Andy Simmonett,      
	           Ed Hohenstein, and C. David Sherrill          
	 --------------------------------------------------------

   => Auxiliary Basis Set <=

  Basis Set: (AUG-CC-PVTZ AUX)
    Blend: AUG-CC-PVTZ-RI
    Number of shells: 252
    Number of basis function: 884
    Number of Cartesian functions: 1094
    Spherical Harmonics?: true
    Max angular momentum: 4

	 --------------------------------------------------------
	                 NBF =   414, NAUX =   884
	 --------------------------------------------------------
	   CLASS    FOCC     OCC    AOCC    AVIR     VIR    FVIR
	   PAIRS       0      17      17     397     397       0
	 --------------------------------------------------------


         ------------------------------------------------------------
                                     CPHF                           
                                  Rob Parrish                       
         ------------------------------------------------------------

  ==> Geometry <==

    Molecular point group: c1
    Full point group: C1

    Geometry (in Angstrom), charge = 0, multiplicity = 1:

       Center              X                  Y                   Z               Mass       
    ------------   -----------------  -----------------  -----------------  -----------------
           H         -2.364793382205     1.054982647118     0.457810735087     1.007825032070
           H         -1.925793382205     1.317982647118    -1.213189264913     1.007825032070
           H         -2.067793382205    -0.308017352882    -0.592189264913     1.007825032070
           C         -1.774793382205     0.692982647118    -0.357189264913    12.000000000000
           H          0.252206617795     1.348982647118    -0.635189264913     1.007825032070
           H         -0.185793382205     1.085982647118     1.035810735087     1.007825032070
           C         -0.285793382205     0.713982647118     0.037810735087    12.000000000000
           H         -0.251793382205    -1.349017352882     0.634810735087     1.007825032070
           H          0.187206617795    -1.086017352882    -1.035189264913     1.007825032070
           C          0.286206617795    -0.714017352882    -0.037189264913    12.000000000000
           H          2.171206617795    -1.685017352882     0.304810735087     1.007825032070
           H          1.874206617795    -0.321017352882     1.354810735087     1.007825032070
           H          2.313206617795    -0.058017352882    -0.315189264913     1.007825032070
           C          1.774206617795    -0.693017352882     0.356810735087    12.000000000000

  Nuclear repulsion =  131.852843164604081
  Reference energy  = -157.347190234813723

  ==> Basis Set <==

  Basis Set: AUG-CC-PVTZ
    Blend: AUG-CC-PVTZ
    Number of shells: 146
    Number of basis function: 414
    Number of Cartesian functions: 470
    Spherical Harmonics?: true
    Max angular momentum: 3

  ==> CGRSolver (by Rob Parrish) <==

   Number of roots    =         1
   Preconditioning    =    JACOBI
   Convergence cutoff =     1E-06
   Maximum iterations =       100

  ==> CPHFRHamiltonian (by Rob Parrish) <== 

  ==> DFJK: Density-Fitted J/K Matrices <==

    J tasked:                  Yes
    K tasked:                  Yes
    wK tasked:                  No
    OpenMP threads:              1
    Integrals threads:           1
    Memory (MB):              3576
    Algorithm:                Core
    Integral Cache:           NONE
    Schwarz Cutoff:          1E-12
    Fitting Condition:       1E-12

   => Auxiliary Basis Set <=

  Basis Set: (AUG-CC-PVTZ AUX)
    Blend: AUG-CC-PVTZ-JKFIT
    Number of shells: 260
    Number of basis function: 876
    Number of Cartesian functions: 1074
    Spherical Harmonics?: true
    Max angular momentum: 4

  ==> CPHF Iterations <==

  => Iterations <=

             Iter  Converged  Remaining    Residual
  CGR           1          0          1   8.175E-02
  CGR           2          0          1   1.315E-02
  CGR           3          0          1   3.418E-03
  CGR           4          0          1   8.049E-04
  CGR           5          0          1   1.184E-04
  CGR           6          0          1   2.153E-05
  CGR           7          0          1   4.146E-06
  CGR           8          0          1   1.114E-06
  CGR           9          1          0   2.910E-07

    CGRSolver converged.

  ==> DFCorrGrad: Density-Fitted Correlated Gradients <==

    OpenMP threads:              1
    Integrals threads:           1
    Memory (MB):              3576
    Schwarz Cutoff:          0E+00
    Fitting Condition:       1E-12

   => Auxiliary Basis Set <=

  Basis Set: (AUG-CC-PVTZ AUX)
    Blend: AUG-CC-PVTZ-JKFIT
    Number of shells: 260
    Number of basis function: 876
    Number of Cartesian functions: 1074
    Spherical Harmonics?: true
    Max angular momentum: 4

	-----------------------------------------------------------
	 ==================> DF-MP2 Energies <==================== 
	-----------------------------------------------------------
	 Reference Energy          =    -157.3471902348137235 [Eh]
	 Singles Energy            =      -0.0000000000000000 [Eh]
	 Same-Spin Energy          =      -0.1654845624307481 [Eh]
	 Opposite-Spin Energy      =      -0.6394780058618466 [Eh]
	 Correlation Energy        =      -0.8049625682925947 [Eh]
	 Total Energy              =    -158.1521528031063042 [Eh]
	-----------------------------------------------------------
	 ================> DF-SCS-MP2 Energies <================== 
	-----------------------------------------------------------
	 SCS Same-Spin Scale       =       0.3333333333333333 [-]
	 SCS Opposite-Spin Scale   =       1.2000000000000000 [-]
	 SCS Same-Spin Energy      =      -0.0551615208102494 [Eh]
	 SCS Opposite-Spin Energy  =      -0.7673736070342159 [Eh]
	 SCS Correlation Energy    =      -0.8225351278444653 [Eh]
	 SCS Total Energy          =    -158.1697253626581983 [Eh]
	-----------------------------------------------------------


  -Total Gradient:
     Atom            X                  Y                   Z
    ------   -----------------  -----------------  -----------------
       1        0.010879770267    -0.003297097790    -0.005935776306
       2        0.006707724540    -0.005182226936     0.008427646037
       3        0.006607391890     0.009956747899     0.003254565108
       4       -0.019346635703    -0.006807771293    -0.005429504873
       5       -0.009018152226    -0.007324886406     0.004710256866
       6       -0.004976056445    -0.005074459423    -0.010711609349
       7        0.016461006419     0.029882011668     0.009573833453
       8        0.008259980026     0.008170502033    -0.006385558259
       9        0.003596228151     0.005300828141     0.011634797016
      10       -0.024505024572    -0.031506274781    -0.011409635677
      11       -0.008469450410     0.010082249403    -0.000651154173
      12       -0.003207361380    -0.004047138818    -0.011005961737
      13       -0.007576856117    -0.006621898202     0.006229061169
      14        0.024587435557     0.006469414502     0.007699040727


*** tstop() called on gpu-2-7.local at Wed Jun 14 14:27:12 2017
Module time:
	user time   =     462.88 seconds =       7.71 minutes
	system time =       6.25 seconds =       0.10 minutes
	total time  =        471 seconds =       7.85 minutes
Total time:
	user time   =     462.89 seconds =       7.71 minutes
	system time =       6.25 seconds =       0.10 minutes
	total time  =        471 seconds =       7.85 minutes

			-----------------------------------------
			 OPTKING 2.0: for geometry optimizations 
			  - R.A. King,  Bethel University        
			-----------------------------------------

	Internal coordinates to be generated automatically.
	Detected frag 1 with atoms:  1 2 3 4 5 6 7 8 9 10 11 12 13 14
	---Fragment 1 Bond Connectivity---
	 1 : 4
	 2 : 4
	 3 : 4
	 4 : 1 2 3 7
	 5 : 7
	 6 : 7
	 7 : 4 5 6 10
	 8 : 10
	 9 : 10
	 10 : 7 8 9 14
	 11 : 14
	 12 : 14
	 13 : 14
	 14 : 10 11 12 13

	Assuming in current code that numbering for constraints corresponds to unified fragment.
	Fixed dihedral atom list: 
	    10     7     4     3
	---Fragment 1 Geometry and Gradient---
	 H          -4.4688118532        1.9936282780        0.8651369100
	 H          -3.6392220809        2.4906262509       -2.2925954580
	 H          -3.9075631918       -0.5820684411       -1.1190755295
	 C          -3.3538734348        1.3095474179       -0.6749898883
	 H           0.4766014365        2.5492077611       -1.2003337532
	 H          -0.3510986097        2.0522097881        1.9573986148
	 C          -0.5400712230        1.3492316667        0.0714519342
	 H          -0.4758205344       -2.5492733455        1.1996184355
	 H           0.3537692379       -2.0522753725       -1.9562242064
	 C           0.5408521251       -1.3492972511       -0.0702775258
	 H           4.1029858855       -3.1842213261        0.5760088117
	 H           3.5417372241       -0.6066348809        2.5602212512
	 H           4.3713269964       -0.1096369079       -0.5956213907
	 C           3.3527646108       -1.3096130023        0.6742745706
	             0.0108797703       -0.0032970978       -0.0059357763
	             0.0067077245       -0.0051822269        0.0084276460
	             0.0066073919        0.0099567479        0.0032545651
	            -0.0193466357       -0.0068077713       -0.0054295049
	            -0.0090181522       -0.0073248864        0.0047102569
	            -0.0049760564       -0.0050744594       -0.0107116093
	             0.0164610064        0.0298820117        0.0095738335
	             0.0082599800        0.0081705020       -0.0063855583
	             0.0035962282        0.0053008281        0.0116347970
	            -0.0245050246       -0.0315062748       -0.0114096357
	            -0.0084694504        0.0100822494       -0.0006511542
	            -0.0032073614       -0.0040471388       -0.0110059617
	            -0.0075768561       -0.0066218982        0.0062290612
	             0.0245874356        0.0064694145        0.0076990407

	Previous optimization step data not found.  Starting new optimization.

	---Fragment 1 Intrafragment Coordinates---
	 - Coordinate -           - BOHR/RAD -       - ANG/DEG -
	 R(1,4)           =         2.020655	       1.069284
	 R(2,4)           =         2.023121	       1.070590
	 R(3,4)           =         2.020395	       1.069147
	 R(4,7)           =         2.911397	       1.540645
	 R(5,7)           =         2.022623	       1.070326
	 R(6,7)           =         2.021555	       1.069761
	 R(7,10)          =         2.910419	       1.540128
	 R(8,10)          =         2.021436	       1.069698
	 R(9,10)          =         2.021379	       1.069668
	 R(10,14)         =         2.909087	       1.539422
	 R(11,14)         =         2.021545	       1.069756
	 R(12,14)         =         2.021555	       1.069761
	 R(13,14)         =         2.022387	       1.070201
	 B(1,4,2)         =         1.911293	     109.509011
	 B(1,4,3)         =         1.910580	     109.468191
	 B(1,4,7)         =         1.910539	     109.465828
	 B(2,4,3)         =         1.909413	     109.401304
	 B(2,4,7)         =         1.910655	     109.472492
	 B(3,4,7)         =         1.911319	     109.510496
	 B(4,7,5)         =         1.909937	     109.431343
	 B(4,7,6)         =         1.911630	     109.528316
	 B(4,7,10)        =         1.911154	     109.501062
	 B(5,7,6)         =         1.910605	     109.469614
	 B(5,7,10)        =         1.910047	     109.437654
	 B(6,7,10)        =         1.910425	     109.459295
	 B(7,10,8)        =         1.910303	     109.452301
	 B(7,10,9)        =         1.910824	     109.482155
	 B(7,10,14)       =         1.911213	     109.504437
	 B(8,10,9)        =         1.910417	     109.458846
	 B(8,10,14)       =         1.910766	     109.478806
	 B(9,10,14)       =         1.910276	     109.450772
	 B(10,14,11)      =         1.910943	     109.488965
	 B(10,14,12)      =         1.911204	     109.503926
	 B(10,14,13)      =         1.911557	     109.524173
	 B(11,14,12)      =         1.910410	     109.458432
	 B(11,14,13)      =         1.910054	     109.438058
	 B(12,14,13)      =         1.909629	     109.413709
	 D(1,4,7,5)       =        -2.094807	    -120.023624
	 D(1,4,7,6)       =        -0.000263	      -0.015072
	 D(1,4,7,10)      =         2.094808	     120.023636
	 D(2,4,7,5)       =         0.000352	       0.020139
	 D(2,4,7,6)       =         2.094896	     120.028692
	 D(2,4,7,10)      =        -2.093219	    -119.932601
	 D(3,4,7,5)       =         2.093685	     119.959331
	 D(3,4,7,6)       =        -2.094956	    -120.032117
	 D(3,4,7,10)      =         0.000115	       0.006591
	 D(4,7,10,8)      =        -1.047368	     -60.009777
	 D(4,7,10,9)      =         1.046677	      59.970178
	 D(4,7,10,14)     =         3.141107	     179.972182
	 D(5,7,10,8)      =        -3.140871	    -179.958653
	 D(5,7,10,9)      =        -1.046826	     -59.978698
	 D(5,7,10,14)     =         1.047604	      60.023306
	 D(6,7,10,8)      =         1.048439	      60.071149
	 D(6,7,10,9)      =        -3.140701	    -179.948896
	 D(6,7,10,14)     =        -1.046271	     -59.946893
	 D(7,10,14,11)    =         3.141408	     179.989448
	 D(7,10,14,12)    =         1.046747	      59.974196
	 D(7,10,14,13)    =        -1.047335	     -60.007849
	 D(8,10,14,11)    =         1.046982	      59.987626
	 D(8,10,14,12)    =        -1.047680	     -60.027626
	 D(8,10,14,13)    =         3.141424	     179.990329
	 D(9,10,14,11)    =        -1.047012	     -59.989345
	 D(9,10,14,12)    =         3.141512	     179.995403
	 D(9,10,14,13)    =         1.047431	      60.013359

	Current energy   :      -158.1521528031

	Generating empirical Hessian (Schlegel '84) for each fragment.
	Adding user-defined constraint: Fragment 1; Coordinate 46:
		Value =     0.000115; Fixed value    =     0.000017
		Force =    -0.000049; Force constant =     0.500000
	Removing off-diagonal coupling between coordinate 46 and others.
	Taking RFO optimization step.
	Going to follow RFO solution 1.
	Using RFO vector 1.

	Determining step-restricting scale parameter for RS-RFO.
	Maximum step size allowed    0.10000

	 Iter      |step|        alpha        rfo_root  
	------------------------------------------------
	    0     0.20386       1.00000           1
	    1     0.15175       8.29896           1
	    2     0.12015      21.53033           1
	    3     0.10468      34.66270           1
	    4     0.10035      39.75569           1
	    5     0.10000      40.19534           1
	------------------------------------------------
	Norm of target step-size    0.10000
	Projected energy change by RFO approximation:        -0.0045157414

	Back-transformation to cartesian coordinates...
	Could not converge backtransformation.
	Using first guess instead.

	--- Internal Coordinate Step in ANG or DEG, aJ/ANG or AJ/DEG ---
	 ---------------------------------------------------------------------------
	   Coordinate                Previous        Force       Change         New 
	   ----------                --------       ------       ------       ------
	    1 R(1,4)          =      1.069284     0.095928     0.011243     1.080527
	    2 R(2,4)          =      1.070590     0.088235     0.010378     1.080967
	    3 R(3,4)          =      1.069147     0.097614     0.011564     1.080711
	    4 R(4,7)          =      1.540645     0.038675     0.005465     1.546110
	    5 R(5,7)          =      1.070326     0.097550     0.011404     1.081730
	    6 R(6,7)          =      1.069761     0.100700     0.011755     1.081515
	    7 R(7,10)         =      1.540128    -0.072008    -0.009787     1.530341
	    8 R(8,10)         =      1.069698     0.107236     0.012500     1.082197
	    9 R(9,10)         =      1.069668     0.107364     0.012514     1.082181
	   10 R(10,14)        =      1.539422    -0.047925    -0.006571     1.532851
	   11 R(11,14)        =      1.069756     0.102662     0.011997     1.081753
	   12 R(12,14)        =      1.069761     0.098657     0.011541     1.081301
	   13 R(13,14)        =      1.070201     0.096034     0.011246     1.081446
	   14 B(1,4,2)        =    109.509011    -0.000417    -0.905176   108.603835
	   15 B(1,4,3)        =    109.468191    -0.000343    -0.781689   108.686502
	   16 B(1,4,7)        =    109.465828     0.000446     0.988797   110.454625
	   17 B(2,4,3)        =    109.401304    -0.000339    -0.769290   108.632014
	   18 B(2,4,7)        =    109.472492     0.000439     0.974870   110.447362
	   19 B(3,4,7)        =    109.510496     0.000214     0.455451   109.965947
	   20 B(4,7,5)        =    109.431343    -0.000077     0.020357   109.451700
	   21 B(4,7,6)        =    109.528316    -0.000088    -0.009437   109.518879
	   22 B(4,7,10)       =    109.501062     0.000776     1.558342   111.059404
	   23 B(5,7,6)        =    109.469614    -0.000003    -0.283647   109.185967
	   24 B(5,7,10)       =    109.437654    -0.000304    -0.651841   108.785813
	   25 B(6,7,10)       =    109.459295    -0.000303    -0.650195   108.809100
	   26 B(7,10,8)       =    109.452301    -0.000240    -0.485060   108.967241
	   27 B(7,10,9)       =    109.482155    -0.000245    -0.497618   108.984538
	   28 B(7,10,14)      =    109.504437     0.000708     1.414769   110.919206
	   29 B(8,10,9)       =    109.458846     0.000025    -0.166791   109.292055
	   30 B(8,10,14)      =    109.478806    -0.000126    -0.143976   109.334830
	   31 B(9,10,14)      =    109.450772    -0.000121    -0.130905   109.319867
	   32 B(10,14,11)     =    109.488965     0.000418     0.945467   110.434431
	   33 B(10,14,12)     =    109.503926     0.000118     0.247885   109.751810
	   34 B(10,14,13)     =    109.524173     0.000112     0.233506   109.757679
	   35 B(11,14,12)     =    109.458432    -0.000245    -0.525486   108.932946
	   36 B(11,14,13)     =    109.438058    -0.000242    -0.519183   108.918875
	   37 B(12,14,13)     =    109.413709    -0.000162    -0.396957   109.016753
	   38 D(1,4,7,5)      =   -120.023624     0.000008     0.111525  -119.912099
	   39 D(1,4,7,6)      =     -0.015072    -0.000016    -0.228978    -0.244049
	   40 D(1,4,7,10)     =    120.023636    -0.000004    -0.065351   119.958285
	   41 D(2,4,7,5)      =      0.020139     0.000016     0.229893     0.250032
	   42 D(2,4,7,6)      =    120.028692    -0.000008    -0.110609   119.918082
	   43 D(2,4,7,10)     =   -119.932601     0.000003     0.053017  -119.879584
	   44 D(3,4,7,5)      =    119.959331     0.000012     0.173517   120.132848
	   45 D(3,4,7,6)      =   -120.032117    -0.000012    -0.166985  -120.199102
	   46 D(3,4,7,10)     =      0.006591    -0.000000    -0.003358     0.003232
	   47 D(4,7,10,8)     =    -60.009777     0.000031     0.405687   -59.604090
	   48 D(4,7,10,9)     =     59.970178    -0.000030    -0.385739    59.584439
	   49 D(4,7,10,14)    =    179.972182     0.000001     0.014304   179.986486
	   50 D(5,7,10,8)     =   -179.958653    -0.000013    -0.169646  -180.128299
	   51 D(5,7,10,9)     =    -59.978698    -0.000074    -0.961072   -60.939769
	   52 D(5,7,10,14)    =     60.023306    -0.000043    -0.561028    59.462277
	   53 D(6,7,10,8)     =     60.071149     0.000073     0.947331    61.018480
	   54 D(6,7,10,9)     =   -179.948896     0.000012     0.155905  -179.792991
	   55 D(6,7,10,14)    =    -59.946893     0.000043     0.555948   -59.390944
	   56 D(7,10,14,11)   =    179.989448     0.000000     0.003027   179.992475
	   57 D(7,10,14,12)   =     59.974196    -0.000006    -0.092835    59.881361
	   58 D(7,10,14,13)   =    -60.007849     0.000007     0.097742   -59.910106
	   59 D(8,10,14,11)   =     59.987626    -0.000014    -0.186119    59.801507
	   60 D(8,10,14,12)   =    -60.027626    -0.000020    -0.281981   -60.309607
	   61 D(8,10,14,13)   =    179.990329    -0.000007    -0.091404   179.898926
	   62 D(9,10,14,11)   =    -59.989345     0.000014     0.184587   -59.804757
	   63 D(9,10,14,12)   =    179.995403     0.000007     0.088725   180.084128
	   64 D(9,10,14,13)   =     60.013359     0.000020     0.279302    60.292661
	 ---------------------------------------------------------------------------
	Successfully symmetrized geometry.
	 Forces used to impose fixed constraints are not included.
	  Forces zeroed: 46 

  ==> Convergence Check <==

  Measures of convergence in internal coordinates in au.
  Criteria marked as inactive (o), active & met (*), and active & unmet ( ).
  --------------------------------------------------------------------------------------------- ~
   Step     Total Energy     Delta E     MAX Force     RMS Force      MAX Disp      RMS Disp    ~
  --------------------------------------------------------------------------------------------- ~
    Convergence Criteria    1.00e-06 *    3.00e-04 *             o    1.20e-03 *             o  ~
  --------------------------------------------------------------------------------------------- ~
      1    -158.15215280   -1.58e+02      1.30e-02      5.74e-03 o    2.72e-02      1.25e-02 o  ~
  ---------------------------------------------------------------------------------------------

	Writing optimization data to binary file.
	Structure for next step:
	Cartesian Geometry (in Angstrom)
	    H    -2.3919704779   1.0671050657   0.4569236333
	    H    -1.9507084975   1.3308932353  -1.2214622729
	    H    -2.1013133966  -0.3044978812  -0.6004129934
	    C    -1.7857603364   0.7005204300  -0.3589585952
	    H     0.2586659465   1.3442389802  -0.6425988530
	    H    -0.1834904562   1.0791057433   1.0435104048
	    C    -0.2906172352   0.7041949274   0.0347282442
	    H    -0.2468152634  -1.3487162392   0.6457164080
	    H     0.1968219655  -1.0828369388  -1.0420656566
	    C     0.2992534183  -0.7062835527  -0.0326935948
	    H     2.1902900727  -1.6991635578   0.3076579148
	    H     1.8917974051  -0.3249884394   1.3664266709
	    H     2.3342368029  -0.0599329086  -0.3172589506
	    C     1.7815027014  -0.6988818045   0.3578379318
			--------------------------
			 OPTKING Finished Execution 
			--------------------------

    Structure for next step:
    Molecular point group: c1
    Full point group: C1

    Geometry (in Angstrom), charge = 0, multiplicity = 1:

    H           -2.392832026345     1.067177097719     0.456796627860
    H           -1.951570045949     1.330965267297    -1.221589278311
    H           -2.102174945057    -0.304425849183    -0.600539998832
    C           -1.786621884837     0.700592462012    -0.359085600638
    H            0.257804398064     1.344311012166    -0.642725858432
    H           -0.184352004590     1.079177775262     1.043383399391
    C           -0.291478783607     0.704266959437     0.034601238837
    H           -0.247676811792    -1.348644207218     0.645589402549
    H            0.195960417053    -1.082764906804    -1.042192661995
    C            0.298391869829    -0.706211520738    -0.032820600192
    H            2.189428524284    -1.699091525808     0.307530909434
    H            1.890935856651    -0.324916407432     1.366299665453
    H            2.333375254499    -0.059860876611    -0.317385955977
    C            1.780641152937    -0.698809772477     0.357710926419

gradient() will perform analytic gradient computation.

*** tstart() called on gpu-2-7.local
*** at Wed Jun 14 14:27:12 2017

    SCF Algorithm Type (re)set to DF.

*** tstart() called on gpu-2-7.local
*** at Wed Jun 14 14:27:12 2017

   => Loading Basis Set <=

    Name: AUG-CC-PVTZ
    Role: ORBITAL
    Keyword: BASIS
    atoms 1-3, 5-6, 8-9, 11-13 entry H          line    34 file /cbio/jclab/home/chayas/anaconda/envs/py35/share/psi4/basis/aug-cc-pvtz.gbs 
    atoms 4, 7, 10, 14         entry C          line   221 file /cbio/jclab/home/chayas/anaconda/envs/py35/share/psi4/basis/aug-cc-pvtz.gbs 


         ---------------------------------------------------------
                                   SCF
            by Justin Turney, Rob Parrish, and Andy Simmonett
                              RHF Reference
                        1 Threads,   4768 MiB Core
         ---------------------------------------------------------

  ==> Geometry <==

    Molecular point group: c1
    Full point group: C1

    Geometry (in Angstrom), charge = 0, multiplicity = 1:

       Center              X                  Y                   Z               Mass       
    ------------   -----------------  -----------------  -----------------  -----------------
           H         -2.392832026345     1.067177097719     0.456796627860     1.007825032070
           H         -1.951570045949     1.330965267297    -1.221589278311     1.007825032070
           H         -2.102174945057    -0.304425849183    -0.600539998832     1.007825032070
           C         -1.786621884837     0.700592462012    -0.359085600638    12.000000000000
           H          0.257804398064     1.344311012166    -0.642725858432     1.007825032070
           H         -0.184352004590     1.079177775262     1.043383399391     1.007825032070
           C         -0.291478783607     0.704266959437     0.034601238837    12.000000000000
           H         -0.247676811792    -1.348644207218     0.645589402549     1.007825032070
           H          0.195960417053    -1.082764906804    -1.042192661995     1.007825032070
           C          0.298391869829    -0.706211520738    -0.032820600192    12.000000000000
           H          2.189428524284    -1.699091525808     0.307530909434     1.007825032070
           H          1.890935856651    -0.324916407432     1.366299665453     1.007825032070
           H          2.333375254499    -0.059860876611    -0.317385955977     1.007825032070
           C          1.780641152937    -0.698809772477     0.357710926419    12.000000000000

  Running in c1 symmetry.

  Rotational constants: A =      0.77699  B =      0.12285  C =      0.11514 [cm^-1]
  Rotational constants: A =  23293.60175  B =   3683.00185  C =   3451.77547 [MHz]
  Nuclear repulsion =  131.249076339895169

  Charge       = 0
  Multiplicity = 1
  Electrons    = 34
  Nalpha       = 17
  Nbeta        = 17

  ==> Algorithm <==

  SCF Algorithm Type is DF.
  DIIS enabled.
  MOM disabled.
  Fractional occupation disabled.
  Guess Type is READ.
  Energy threshold   = 1.00e-10
  Density threshold  = 1.00e-10
  Integral threshold = 0.00e+00

  ==> Primary Basis <==

  Basis Set: AUG-CC-PVTZ
    Blend: AUG-CC-PVTZ
    Number of shells: 146
    Number of basis function: 414
    Number of Cartesian functions: 470
    Spherical Harmonics?: true
    Max angular momentum: 3

   => Loading Basis Set <=

    Name: (AUG-CC-PVTZ AUX)
    Role: JKFIT
    Keyword: DF_BASIS_SCF
    atoms 1-3, 5-6, 8-9, 11-13 entry H          line    69 file /cbio/jclab/home/chayas/anaconda/envs/py35/share/psi4/basis/aug-cc-pvtz-jkfit.gbs 
    atoms 4, 7, 10, 14         entry C          line   161 file /cbio/jclab/home/chayas/anaconda/envs/py35/share/psi4/basis/aug-cc-pvtz-jkfit.gbs 

  Reading orbitals from file 180, no projection.

  ==> Pre-Iterations <==

   -------------------------------------------------------
    Irrep   Nso     Nmo     Nalpha   Nbeta   Ndocc  Nsocc
   -------------------------------------------------------
     A        414     414       0       0       0       0
   -------------------------------------------------------
    Total     414     414      17      17      17       0
   -------------------------------------------------------

  ==> Integral Setup <==

  ==> DFJK: Density-Fitted J/K Matrices <==

    J tasked:                  Yes
    K tasked:                  Yes
    wK tasked:                  No
    OpenMP threads:              1
    Integrals threads:           1
    Memory (MB):              3576
    Algorithm:                Core
    Integral Cache:           NONE
    Schwarz Cutoff:          1E-12
    Fitting Condition:       1E-12

   => Auxiliary Basis Set <=

  Basis Set: (AUG-CC-PVTZ AUX)
    Blend: AUG-CC-PVTZ-JKFIT
    Number of shells: 260
    Number of basis function: 876
    Number of Cartesian functions: 1074
    Spherical Harmonics?: true
    Max angular momentum: 4

  Minimum eigenvalue in the overlap matrix is 8.9247678789E-06.
  Using Symmetric Orthogonalization.

  SCF Guess: Orbitals guess was supplied from a previous computation.

  ==> Iterations <==

                           Total Energy        Delta E     RMS |[F,P]|

   @DF-RHF iter   0:  -157.27512974172754   -1.57275e+02   1.21838e-04 
   @DF-RHF iter   1:  -157.34983250609071   -7.47028e-02   4.82980e-05 
   @DF-RHF iter   2:  -157.35006963402452   -2.37128e-04   2.49182e-05 DIIS
   @DF-RHF iter   3:  -157.35012012080037   -5.04868e-05   2.72375e-06 DIIS
   @DF-RHF iter   4:  -157.35012145233719   -1.33154e-06   7.36735e-07 DIIS
   @DF-RHF iter   5:  -157.35012153480918   -8.24720e-08   2.47497e-07 DIIS
   @DF-RHF iter   6:  -157.35012154440827   -9.59909e-09   4.35002e-08 DIIS
   @DF-RHF iter   7:  -157.35012154482450   -4.16236e-10   7.07422e-09 DIIS
   @DF-RHF iter   8:  -157.35012154483405   -9.54969e-12   1.56953e-09 DIIS
   @DF-RHF iter   9:  -157.35012154483593   -1.87583e-12   3.54528e-10 DIIS
   @DF-RHF iter  10:  -157.35012154483596   -2.84217e-14   7.58846e-11 DIIS

  ==> Post-Iterations <==

    Orbital Energies (a.u.)
    -----------------------

    Doubly Occupied:                                                      

       1A    -11.210458     2A    -11.209448     3A    -11.203277  
       4A    -11.202648     5A     -1.069865     6A     -0.978415  
       7A     -0.860739     8A     -0.790219     9A     -0.643424  
      10A     -0.583767    11A     -0.573660    12A     -0.572552  
      13A     -0.509901    14A     -0.502270    15A     -0.466494  
      16A     -0.465588    17A     -0.447830  

    Virtual:                                                              

      18A      0.032364    19A      0.037630    20A      0.039882  
      21A      0.039907    22A      0.058175    23A      0.059552  
      24A      0.060542    25A      0.061422    26A      0.075509  
      27A      0.083328    28A      0.103659    29A      0.112809  
      30A      0.122280    31A      0.130646    32A      0.140017  
      33A      0.141613    34A      0.143077    35A      0.143424  
      36A      0.148436    37A      0.161413    38A      0.165880  
      39A      0.168751    40A      0.174492    41A      0.194726  
      42A      0.201061    43A      0.219813    44A      0.221831  
      45A      0.239935    46A      0.249929    47A      0.254587  
      48A      0.263840    49A      0.280357    50A      0.281103  
      51A      0.290062    52A      0.309906    53A      0.318854  
      54A      0.337315    55A      0.342365    56A      0.343569  
      57A      0.355777    58A      0.358238    59A      0.359263  
      60A      0.363760    61A      0.369109    62A      0.370622  
      63A      0.384183    64A      0.388254    65A      0.389244  
      66A      0.392011    67A      0.392556    68A      0.395437  
      69A      0.405914    70A      0.408744    71A      0.413740  
      72A      0.433348    73A      0.436350    74A      0.440894  
      75A      0.446627    76A      0.461225    77A      0.462376  
      78A      0.465369    79A      0.465508    80A      0.486899  
      81A      0.489452    82A      0.498759    83A      0.509010  
      84A      0.514274    85A      0.517531    86A      0.518542  
      87A      0.524793    88A      0.532428    89A      0.538758  
      90A      0.542958    91A      0.550346    92A      0.552482  
      93A      0.556899    94A      0.580280    95A      0.585288  
      96A      0.587023    97A      0.589641    98A      0.617314  
      99A      0.618677   100A      0.635009   101A      0.638800  
     102A      0.648765   103A      0.673504   104A      0.679890  
     105A      0.699765   106A      0.713784   107A      0.747579  
     108A      0.773798   109A      0.788730   110A      0.817783  
     111A      0.825460   112A      0.827418   113A      0.830177  
     114A      0.838720   115A      0.843264   116A      0.854798  
     117A      0.867573   118A      0.874827   119A      0.883311  
     120A      0.889732   121A      0.895877   122A      0.897654  
     123A      0.916444   124A      0.917583   125A      0.919207  
     126A      0.925204   127A      0.928670   128A      0.939508  
     129A      0.946833   130A      0.961223   131A      0.965641  
     132A      0.970011   133A      0.980938   134A      0.981427  
     135A      0.989486   136A      1.017397   137A      1.026575  
     138A      1.037971   139A      1.046258   140A      1.050500  
     141A      1.071133   142A      1.078867   143A      1.081802  
     144A      1.084668   145A      1.100666   146A      1.105454  
     147A      1.119085   148A      1.141851   149A      1.148749  
     150A      1.157162   151A      1.158506   152A      1.164191  
     153A      1.182230   154A      1.193540   155A      1.208500  
     156A      1.235779   157A      1.237995   158A      1.243677  
     159A      1.252400   160A      1.256497   161A      1.257595  
     162A      1.268659   163A      1.274452   164A      1.285524  
     165A      1.296400   166A      1.302042   167A      1.308007  
     168A      1.319273   169A      1.331324   170A      1.351571  
     171A      1.361766   172A      1.386722   173A      1.393268  
     174A      1.419984   175A      1.432056   176A      1.450786  
     177A      1.473057   178A      1.476940   179A      1.479737  
     180A      1.484914   181A      1.508892   182A      1.527495  
     183A      1.536741   184A      1.540275   185A      1.576888  
     186A      1.592925   187A      1.598010   188A      1.613046  
     189A      1.616731   190A      1.636303   191A      1.644107  
     192A      1.670079   193A      1.672458   194A      1.693129  
     195A      1.699254   196A      1.703714   197A      1.706016  
     198A      1.719273   199A      1.722361   200A      1.727401  
     201A      1.734208   202A      1.749947   203A      1.750055  
     204A      1.760103   205A      1.764686   206A      1.766293  
     207A      1.785000   208A      1.805345   209A      1.816668  
     210A      1.843542   211A      1.849655   212A      1.874601  
     213A      1.900117   214A      1.915364   215A      1.942820  
     216A      1.962301   217A      1.967696   218A      1.968252  
     219A      1.973196   220A      1.998345   221A      2.005737  
     222A      2.015839   223A      2.032711   224A      2.041953  
     225A      2.046322   226A      2.056551   227A      2.068361  
     228A      2.086027   229A      2.092525   230A      2.128248  
     231A      2.160679   232A      2.184473   233A      2.195772  
     234A      2.218256   235A      2.223688   236A      2.258293  
     237A      2.266006   238A      2.273061   239A      2.281093  
     240A      2.299478   241A      2.312585   242A      2.333164  
     243A      2.364815   244A      2.366194   245A      2.384008  
     246A      2.411137   247A      2.434031   248A      2.459233  
     249A      2.461579   250A      2.472305   251A      2.497405  
     252A      2.549095   253A      2.589808   254A      2.612706  
     255A      2.620194   256A      2.674043   257A      2.783581  
     258A      2.866682   259A      2.957875   260A      3.043963  
     261A      3.170455   262A      3.248722   263A      3.277363  
     264A      3.366115   265A      3.396015   266A      3.417023  
     267A      3.444913   268A      3.448417   269A      3.474091  
     270A      3.474731   271A      3.522747   272A      3.558362  
     273A      3.571519   274A      3.585416   275A      3.589970  
     276A      3.601265   277A      3.628858   278A      3.664743  
     279A      3.668831   280A      3.684512   281A      3.691184  
     282A      3.698438   283A      3.715491   284A      3.730522  
     285A      3.752285   286A      3.785470   287A      3.795760  
     288A      3.798975   289A      3.828996   290A      3.839351  
     291A      3.846454   292A      3.857152   293A      3.879435  
     294A      3.882082   295A      3.912438   296A      3.913080  
     297A      3.949169   298A      3.975477   299A      3.986033  
     300A      3.995923   301A      3.998653   302A      4.002409  
     303A      4.020271   304A      4.024781   305A      4.056150  
     306A      4.063967   307A      4.072094   308A      4.093238  
     309A      4.157707   310A      4.180657   311A      4.194931  
     312A      4.215640   313A      4.223006   314A      4.238372  
     315A      4.239477   316A      4.260865   317A      4.267539  
     318A      4.275031   319A      4.306513   320A      4.309089  
     321A      4.353623   322A      4.357250   323A      4.378517  
     324A      4.428612   325A      4.449987   326A      4.458048  
     327A      4.509989   328A      4.531607   329A      4.545006  
     330A      4.552808   331A      4.595150   332A      4.621384  
     333A      4.646911   334A      4.662463   335A      4.683214  
     336A      4.701167   337A      4.725291   338A      4.738200  
     339A      4.756686   340A      4.804392   341A      4.808840  
     342A      4.859241   343A      4.863452   344A      4.872897  
     345A      4.875619   346A      4.905148   347A      4.933654  
     348A      4.963178   349A      4.963362   350A      4.996046  
     351A      5.003667   352A      5.028594   353A      5.043718  
     354A      5.092813   355A      5.124692   356A      5.127975  
     357A      5.171217   358A      5.197929   359A      5.205813  
     360A      5.234120   361A      5.243666   362A      5.257232  
     363A      5.270226   364A      5.323718   365A      5.323935  
     366A      5.344899   367A      5.361278   368A      5.404756  
     369A      5.418932   370A      5.420437   371A      5.447896  
     372A      5.469761   373A      5.498212   374A      5.515068  
     375A      5.518615   376A      5.549445   377A      5.570529  
     378A      5.608771   379A      5.613586   380A      5.660955  
     381A      5.691217   382A      5.728389   383A      5.747772  
     384A      5.781138   385A      5.783668   386A      5.833138  
     387A      5.852823   388A      5.927713   389A      5.958604  
     390A      6.015859   391A      6.022753   392A      6.092311  
     393A      6.134940   394A      6.141894   395A      6.191454  
     396A      6.192387   397A      6.237734   398A      6.302070  
     399A      6.305132   400A      6.344249   401A      6.382464  
     402A      6.472029   403A      6.558246   404A      6.607604  
     405A      6.746178   406A      6.773113   407A      6.817238  
     408A      6.844992   409A      6.872037   410A      6.981950  
     411A     17.844866   412A     18.124981   413A     18.775542  
     414A     19.786562  

    Final Occupation by Irrep:
              A 
    DOCC [    17 ]

  Energy converged.

  @DF-RHF Final Energy:  -157.35012154483596

   => Energetics <=

    Nuclear Repulsion Energy =            131.2490763398951685
    One-Electron Energy =                -470.6172826130639351
    Two-Electron Energy =                 182.0180847283328092
    DFT Exchange-Correlation Energy =       0.0000000000000000
    Empirical Dispersion Energy =           0.0000000000000000
    PCM Polarization Energy =               0.0000000000000000
    EFP Energy =                            0.0000000000000000
    Total Energy =                       -157.3501215448359574



Properties will be evaluated at   0.000000,   0.000000,   0.000000 Bohr

Properties computed using the SCF density matrix

  Nuclear Dipole Moment: (a.u.)
     X:    -0.0104      Y:     0.0018      Z:    -0.0045

  Electronic Dipole Moment: (a.u.)
     X:     0.0107      Y:    -0.0028      Z:     0.0045

  Dipole Moment: (a.u.)
     X:     0.0003      Y:    -0.0010      Z:    -0.0000     Total:     0.0011

  Dipole Moment: (Debye)
     X:     0.0007      Y:    -0.0026      Z:    -0.0000     Total:     0.0027


*** tstop() called on gpu-2-7.local at Wed Jun 14 14:28:31 2017
Module time:
	user time   =      78.32 seconds =       1.31 minutes
	system time =       0.61 seconds =       0.01 minutes
	total time  =         79 seconds =       1.32 minutes
Total time:
	user time   =     541.29 seconds =       9.02 minutes
	system time =       6.97 seconds =       0.12 minutes
	total time  =        550 seconds =       9.17 minutes

  //>>>>>>>>>>>>>>>>>>>>>>>>>>>>>>>>>>>//
  //               DFMP2               //
  //<<<<<<<<<<<<<<<<<<<<<<<<<<<<<<<<<<<//

   => Loading Basis Set <=

    Name: (AUG-CC-PVTZ AUX)
    Role: RIFIT
    Keyword: DF_BASIS_MP2
    atoms 1-3, 5-6, 8-9, 11-13 entry H          line    29 file /cbio/jclab/home/chayas/anaconda/envs/py35/share/psi4/basis/aug-cc-pvtz-ri.gbs 
    atoms 4, 7, 10, 14         entry C          line   147 file /cbio/jclab/home/chayas/anaconda/envs/py35/share/psi4/basis/aug-cc-pvtz-ri.gbs 

	 --------------------------------------------------------
	                          DF-MP2                         
	      2nd-Order Density-Fitted Moller-Plesset Theory     
	              RMP2 Wavefunction,   1 Threads             
	                                                         
	        Rob Parrish, Justin Turney, Andy Simmonett,      
	           Ed Hohenstein, and C. David Sherrill          
	 --------------------------------------------------------

   => Auxiliary Basis Set <=

  Basis Set: (AUG-CC-PVTZ AUX)
    Blend: AUG-CC-PVTZ-RI
    Number of shells: 252
    Number of basis function: 884
    Number of Cartesian functions: 1094
    Spherical Harmonics?: true
    Max angular momentum: 4

	 --------------------------------------------------------
	                 NBF =   414, NAUX =   884
	 --------------------------------------------------------
	   CLASS    FOCC     OCC    AOCC    AVIR     VIR    FVIR
	   PAIRS       0      17      17     397     397       0
	 --------------------------------------------------------


         ------------------------------------------------------------
                                     CPHF                           
                                  Rob Parrish                       
         ------------------------------------------------------------

  ==> Geometry <==

    Molecular point group: c1
    Full point group: C1

    Geometry (in Angstrom), charge = 0, multiplicity = 1:

       Center              X                  Y                   Z               Mass       
    ------------   -----------------  -----------------  -----------------  -----------------
           H         -2.392832026345     1.067177097719     0.456796627860     1.007825032070
           H         -1.951570045949     1.330965267297    -1.221589278311     1.007825032070
           H         -2.102174945057    -0.304425849183    -0.600539998832     1.007825032070
           C         -1.786621884837     0.700592462012    -0.359085600638    12.000000000000
           H          0.257804398064     1.344311012166    -0.642725858432     1.007825032070
           H         -0.184352004590     1.079177775262     1.043383399391     1.007825032070
           C         -0.291478783607     0.704266959437     0.034601238837    12.000000000000
           H         -0.247676811792    -1.348644207218     0.645589402549     1.007825032070
           H          0.195960417053    -1.082764906804    -1.042192661995     1.007825032070
           C          0.298391869829    -0.706211520738    -0.032820600192    12.000000000000
           H          2.189428524284    -1.699091525808     0.307530909434     1.007825032070
           H          1.890935856651    -0.324916407432     1.366299665453     1.007825032070
           H          2.333375254499    -0.059860876611    -0.317385955977     1.007825032070
           C          1.780641152937    -0.698809772477     0.357710926419    12.000000000000

  Nuclear repulsion =  131.249076339895169
  Reference energy  = -157.350121544835957

  ==> Basis Set <==

  Basis Set: AUG-CC-PVTZ
    Blend: AUG-CC-PVTZ
    Number of shells: 146
    Number of basis function: 414
    Number of Cartesian functions: 470
    Spherical Harmonics?: true
    Max angular momentum: 3

  ==> CGRSolver (by Rob Parrish) <==

   Number of roots    =         1
   Preconditioning    =    JACOBI
   Convergence cutoff =     1E-06
   Maximum iterations =       100

  ==> CPHFRHamiltonian (by Rob Parrish) <== 

  ==> DFJK: Density-Fitted J/K Matrices <==

    J tasked:                  Yes
    K tasked:                  Yes
    wK tasked:                  No
    OpenMP threads:              1
    Integrals threads:           1
    Memory (MB):              3576
    Algorithm:                Core
    Integral Cache:           NONE
    Schwarz Cutoff:          1E-12
    Fitting Condition:       1E-12

   => Auxiliary Basis Set <=

  Basis Set: (AUG-CC-PVTZ AUX)
    Blend: AUG-CC-PVTZ-JKFIT
    Number of shells: 260
    Number of basis function: 876
    Number of Cartesian functions: 1074
    Spherical Harmonics?: true
    Max angular momentum: 4

  ==> CPHF Iterations <==

  => Iterations <=

             Iter  Converged  Remaining    Residual
  CGR           1          0          1   8.292E-02
  CGR           2          0          1   1.330E-02
  CGR           3          0          1   3.487E-03
  CGR           4          0          1   8.136E-04
  CGR           5          0          1   1.194E-04
  CGR           6          0          1   2.176E-05
  CGR           7          0          1   3.936E-06
  CGR           8          1          0   9.646E-07

    CGRSolver converged.

  ==> DFCorrGrad: Density-Fitted Correlated Gradients <==

    OpenMP threads:              1
    Integrals threads:           1
    Memory (MB):              3576
    Schwarz Cutoff:          0E+00
    Fitting Condition:       1E-12

   => Auxiliary Basis Set <=

  Basis Set: (AUG-CC-PVTZ AUX)
    Blend: AUG-CC-PVTZ-JKFIT
    Number of shells: 260
    Number of basis function: 876
    Number of Cartesian functions: 1074
    Spherical Harmonics?: true
    Max angular momentum: 4

	-----------------------------------------------------------
	 ==================> DF-MP2 Energies <==================== 
	-----------------------------------------------------------
	 Reference Energy          =    -157.3501215448359574 [Eh]
	 Singles Energy            =      -0.0000000000000001 [Eh]
	 Same-Spin Energy          =      -0.1653375828201933 [Eh]
	 Opposite-Spin Energy      =      -0.6398231184662294 [Eh]
	 Correlation Energy        =      -0.8051607012864229 [Eh]
	 Total Energy              =    -158.1552822461223684 [Eh]
	-----------------------------------------------------------
	 ================> DF-SCS-MP2 Energies <================== 
	-----------------------------------------------------------
	 SCS Same-Spin Scale       =       0.3333333333333333 [-]
	 SCS Opposite-Spin Scale   =       1.2000000000000000 [-]
	 SCS Same-Spin Energy      =      -0.0551125276067311 [Eh]
	 SCS Opposite-Spin Energy  =      -0.7677877421594753 [Eh]
	 SCS Correlation Energy    =      -0.8229002697662066 [Eh]
	 SCS Total Energy          =    -158.1730218146021514 [Eh]
	-----------------------------------------------------------


  -Total Gradient:
     Atom            X                  Y                   Z
    ------   -----------------  -----------------  -----------------
       1        0.004507055744    -0.000790923748    -0.001303126210
       2        0.003302169406    -0.001348131138     0.002761745941
       3        0.003121216045     0.003284070885     0.001284776646
       4       -0.012820426722    -0.003593177540    -0.003691542717
       5       -0.004166574660    -0.003834562428    -0.000170727748
       6       -0.003361801770    -0.003414986780    -0.003094609765
       7        0.012261531064     0.016113909882     0.006016967719
       8        0.003779252943     0.004105960737    -0.000609537546
       9        0.002734762965     0.003434507536     0.003514504110
      10       -0.014016212940    -0.016381678071    -0.006292396501
      11       -0.003557181716     0.002705716539    -0.000520100214
      12       -0.002227771938    -0.001527223264    -0.003694262477
      13       -0.003535842744    -0.002310935931     0.001493603467
      14        0.013979824327     0.003557453318     0.004304705297


*** tstop() called on gpu-2-7.local at Wed Jun 14 14:34:42 2017
Module time:
	user time   =     443.71 seconds =       7.40 minutes
	system time =       5.62 seconds =       0.09 minutes
	total time  =        450 seconds =       7.50 minutes
Total time:
	user time   =     906.68 seconds =      15.11 minutes
	system time =      11.98 seconds =       0.20 minutes
	total time  =        921 seconds =      15.35 minutes

			-----------------------------------------
			 OPTKING 2.0: for geometry optimizations 
			  - R.A. King,  Bethel University        
			-----------------------------------------

	Previous internal coordinate definitions found.
	---Fragment 1 Geometry and Gradient---
	 H          -4.5217972118        2.0166724500        0.8632205251
	 H          -3.6879329160        2.5151598476       -2.3084691829
	 H          -3.9725349296       -0.5752814827       -1.1348561296
	 C          -3.3762260654        1.3239278840       -0.6785734435
	 H           0.4871797082        2.5403796504       -1.2145758510
	 H          -0.3483748007        2.0393504439        1.9717088764
	 C          -0.5508150746        1.3308716778        0.0653868653
	 H          -0.4680413438       -2.5485682023        1.2199871651
	 H           0.3703115211       -2.0461291402       -1.9694587089
	 C           0.5638789143       -1.3345463661       -0.0620219459
	 H           4.1374202984       -3.2108176585        0.5811491962
	 H           3.5733509039       -0.6140030261        2.5819321832
	 H           4.4094401963       -0.1131206629       -0.5997725352
	 C           3.3649241200       -1.3205590890        0.6759756857
	             0.0045070557       -0.0007909237       -0.0013031262
	             0.0033021694       -0.0013481311        0.0027617459
	             0.0031212160        0.0032840709        0.0012847766
	            -0.0128204267       -0.0035931775       -0.0036915427
	            -0.0041665747       -0.0038345624       -0.0001707277
	            -0.0033618018       -0.0034149868       -0.0030946098
	             0.0122615311        0.0161139099        0.0060169677
	             0.0037792529        0.0041059607       -0.0006095375
	             0.0027347630        0.0034345075        0.0035145041
	            -0.0140162129       -0.0163816781       -0.0062923965
	            -0.0035571817        0.0027057165       -0.0005201002
	            -0.0022277719       -0.0015272233       -0.0036942625
	            -0.0035358427       -0.0023109359        0.0014936035
	             0.0139798243        0.0035574533        0.0043047053

	---Fragment 1 Intrafragment Coordinates---
	 - Coordinate -           - BOHR/RAD -       - ANG/DEG -
	 R(1,4)           =         2.041900	       1.080527
	 R(2,4)           =         2.042732	       1.080967
	 R(3,4)           =         2.042247	       1.080711
	 R(4,7)           =         2.921724	       1.546110
	 R(5,7)           =         2.044174	       1.081730
	 R(6,7)           =         2.043768	       1.081515
	 R(7,10)          =         2.891925	       1.530341
	 R(8,10)          =         2.045056	       1.082197
	 R(9,10)          =         2.045026	       1.082181
	 R(10,14)         =         2.896669	       1.532851
	 R(11,14)         =         2.044216	       1.081753
	 R(12,14)         =         2.043363	       1.081301
	 R(13,14)         =         2.043638	       1.081446
	 B(1,4,2)         =         1.895494	     108.603835
	 B(1,4,3)         =         1.896937	     108.686502
	 B(1,4,7)         =         1.927797	     110.454625
	 B(2,4,3)         =         1.895986	     108.632014
	 B(2,4,7)         =         1.927670	     110.447362
	 B(3,4,7)         =         1.919268	     109.965947
	 B(4,7,5)         =         1.910293	     109.451700
	 B(4,7,6)         =         1.911465	     109.518879
	 B(4,7,10)        =         1.938352	     111.059404
	 B(5,7,6)         =         1.905655	     109.185967
	 B(5,7,10)        =         1.898671	     108.785813
	 B(6,7,10)        =         1.899077	     108.809100
	 B(7,10,8)        =         1.901837	     108.967241
	 B(7,10,9)        =         1.902139	     108.984538
	 B(7,10,14)       =         1.935905	     110.919206
	 B(8,10,9)        =         1.907506	     109.292055
	 B(8,10,14)       =         1.908253	     109.334830
	 B(9,10,14)       =         1.907992	     109.319867
	 B(10,14,11)      =         1.927444	     110.434431
	 B(10,14,12)      =         1.915530	     109.751810
	 B(10,14,13)      =         1.915633	     109.757679
	 B(11,14,12)      =         1.901239	     108.932946
	 B(11,14,13)      =         1.900993	     108.918875
	 B(12,14,13)      =         1.902701	     109.016753
	 D(1,4,7,5)       =        -2.092861	    -119.912099
	 D(1,4,7,6)       =        -0.004259	      -0.244049
	 D(1,4,7,10)      =         2.093667	     119.958285
	 D(2,4,7,5)       =         0.004364	       0.250032
	 D(2,4,7,6)       =         2.092965	     119.918082
	 D(2,4,7,10)      =        -2.092293	    -119.879584
	 D(3,4,7,5)       =         2.096714	     120.132848
	 D(3,4,7,6)       =        -2.097870	    -120.199102
	 D(3,4,7,10)      =         0.000056	       0.003232
	 D(4,7,10,8)      =        -1.040288	     -59.604090
	 D(4,7,10,9)      =         1.039945	      59.584439
	 D(4,7,10,14)     =         3.141357	     179.986486
	 D(5,7,10,8)      =         3.139353	     179.871701
	 D(5,7,10,9)      =        -1.063600	     -60.939769
	 D(5,7,10,14)     =         1.037813	      59.462277
	 D(6,7,10,8)      =         1.064973	      61.018480
	 D(6,7,10,9)      =        -3.137980	    -179.792991
	 D(6,7,10,14)     =        -1.036568	     -59.390944
	 D(7,10,14,11)    =         3.141461	     179.992475
	 D(7,10,14,12)    =         1.045127	      59.881361
	 D(7,10,14,13)    =        -1.045629	     -59.910106
	 D(8,10,14,11)    =         1.043733	      59.801507
	 D(8,10,14,12)    =        -1.052601	     -60.309607
	 D(8,10,14,13)    =         3.139829	     179.898926
	 D(9,10,14,11)    =        -1.043790	     -59.804757
	 D(9,10,14,12)    =        -3.140124	    -179.915872
	 D(9,10,14,13)    =         1.052305	      60.292661

	Current energy   :      -158.1552822461

	Energy change for the previous step:
		Projected    :        -0.0045157414
		Actual       :        -0.0031294430

	Performing BFGS update.
	Previous computed or guess Hessian on step 1.
	Steps to be used in Hessian update: 1
	Adding user-defined constraint: Fragment 1; Coordinate 46:
		Value =     0.000056; Fixed value    =     0.000020
		Force =    -0.000019; Force constant =     0.525000
	Removing off-diagonal coupling between coordinate 46 and others.
	Taking RFO optimization step.
	Going to follow RFO solution 1.
	Using RFO vector 1.

	Determining step-restricting scale parameter for RS-RFO.
	Maximum step size allowed    0.10000

	 Iter      |step|        alpha        rfo_root  
	------------------------------------------------
	    0     0.15197       1.00000           1
	    1     0.11956      11.13377           1
	    2     0.10445      20.60230           1
	    3     0.10032      24.17260           1
	    4     0.10000      24.47402           1
	------------------------------------------------
	Norm of target step-size    0.10000
	Projected energy change by RFO approximation:        -0.0005873874

	Back-transformation to cartesian coordinates...
	Successfully converged to displaced geometry.

	--- Internal Coordinate Step in ANG or DEG, aJ/ANG or AJ/DEG ---
	 ---------------------------------------------------------------------------
	   Coordinate                Previous        Force       Change         New 
	   ----------                --------       ------       ------       ------
	    1 R(1,4)          =      1.080527     0.031150     0.005522     1.086049
	    2 R(2,4)          =      1.080967     0.028783     0.005126     1.086094
	    3 R(3,4)          =      1.080711     0.035035     0.006507     1.087218
	    4 R(4,7)          =      1.546110    -0.017095    -0.006668     1.539442
	    5 R(5,7)          =      1.081730     0.035242     0.006469     1.088199
	    6 R(6,7)          =      1.081515     0.036278     0.006644     1.088159
	    7 R(7,10)         =      1.530341    -0.040347    -0.009836     1.520504
	    8 R(8,10)         =      1.082197     0.038941     0.007140     1.089337
	    9 R(9,10)         =      1.082181     0.038985     0.007148     1.089329
	   10 R(10,14)        =      1.532851    -0.040538    -0.010821     1.522030
	   11 R(11,14)        =      1.081753     0.031489     0.005434     1.087187
	   12 R(12,14)        =      1.081301     0.034612     0.006295     1.087596
	   13 R(13,14)        =      1.081446     0.033820     0.006164     1.087611
	   14 B(1,4,2)        =    108.603835    -0.000222    -0.835549   107.768286
	   15 B(1,4,3)        =    108.686502    -0.000193    -0.826554   107.859948
	   16 B(1,4,7)        =    110.454625     0.000235     0.950635   111.405260
	   17 B(2,4,3)        =    108.632014    -0.000189    -0.797185   107.834829
	   18 B(2,4,7)        =    110.447362     0.000232     0.947572   111.394935
	   19 B(3,4,7)        =    109.965947     0.000118     0.457045   110.422992
	   20 B(4,7,5)        =    109.451700     0.000004     0.306255   109.757955
	   21 B(4,7,6)        =    109.518879    -0.000002     0.266009   109.784888
	   22 B(4,7,10)       =    111.059404     0.000306     1.148262   112.207666
	   23 B(5,7,6)        =    109.185967    -0.000096    -1.240757   107.945210
	   24 B(5,7,10)       =    108.785813    -0.000110    -0.274768   108.511044
	   25 B(6,7,10)       =    108.809100    -0.000110    -0.282102   108.526998
	   26 B(7,10,8)       =    108.967241    -0.000085    -0.183217   108.784024
	   27 B(7,10,9)       =    108.984538    -0.000088    -0.199662   108.784876
	   28 B(7,10,14)      =    110.919206     0.000286     1.084017   112.003222
	   29 B(8,10,9)       =    109.292055    -0.000077    -1.121482   108.170574
	   30 B(8,10,14)      =    109.334830    -0.000022     0.174641   109.509471
	   31 B(9,10,14)      =    109.319867    -0.000019     0.186566   109.506433
	   32 B(10,14,11)     =    110.434431     0.000211     0.846718   111.281149
	   33 B(10,14,12)     =    109.751810     0.000122     0.588873   110.340683
	   34 B(10,14,13)     =    109.757679     0.000120     0.581680   110.339360
	   35 B(11,14,12)     =    108.932946    -0.000157    -0.657919   108.275027
	   36 B(11,14,13)     =    108.918875    -0.000155    -0.649210   108.269665
	   37 B(12,14,13)     =    109.016753    -0.000149    -0.773908   108.242845
	   38 D(1,4,7,5)      =   -119.912099     0.000010     0.479185  -119.432913
	   39 D(1,4,7,6)      =     -0.244049    -0.000016    -0.690821    -0.934871
	   40 D(1,4,7,10)     =    119.958285    -0.000003    -0.122798   119.835487
	   41 D(2,4,7,5)      =      0.250032     0.000016     0.689632     0.939665
	   42 D(2,4,7,6)      =    119.918082    -0.000010    -0.480374   119.437708
	   43 D(2,4,7,10)     =   -119.879584     0.000003     0.087649  -119.791934
	   44 D(3,4,7,5)      =    120.132848     0.000014     0.601361   120.734209
	   45 D(3,4,7,6)      =   -120.199102    -0.000013    -0.568646  -120.767748
	   46 D(3,4,7,10)     =      0.003232    -0.000000    -0.000623     0.002610
[...]
  CGR           1          0          1   8.459E-02
  CGR           2          0          1   1.349E-02
  CGR           3          0          1   3.543E-03
  CGR           4          0          1   8.132E-04
  CGR           5          0          1   1.185E-04
  CGR           6          0          1   2.211E-05
  CGR           7          0          1   4.040E-06
  CGR           8          0          1   1.031E-06
  CGR           9          1          0   2.707E-07

    CGRSolver converged.

  ==> DFCorrGrad: Density-Fitted Correlated Gradients <==

    OpenMP threads:              1
    Integrals threads:           1
    Memory (MB):              3576
    Schwarz Cutoff:          0E+00
    Fitting Condition:       1E-12

   => Auxiliary Basis Set <=

  Basis Set: (AUG-CC-PVTZ AUX)
    Blend: AUG-CC-PVTZ-JKFIT
    Number of shells: 260
    Number of basis function: 876
    Number of Cartesian functions: 1074
    Spherical Harmonics?: true
    Max angular momentum: 4

	-----------------------------------------------------------
	 ==================> DF-MP2 Energies <==================== 
	-----------------------------------------------------------
	 Reference Energy          =    -157.3512742841119234 [Eh]
	 Singles Energy            =      -0.0000000000000000 [Eh]
	 Same-Spin Energy          =      -0.1654445760373213 [Eh]
	 Opposite-Spin Energy      =      -0.6398947158221961 [Eh]
	 Correlation Energy        =      -0.8053392918595175 [Eh]
	 Total Energy              =    -158.1566135759714484 [Eh]
	-----------------------------------------------------------
	 ================> DF-SCS-MP2 Energies <================== 
	-----------------------------------------------------------
	 SCS Same-Spin Scale       =       0.3333333333333333 [-]
	 SCS Opposite-Spin Scale   =       1.2000000000000000 [-]
	 SCS Same-Spin Energy      =      -0.0551481920124404 [Eh]
	 SCS Opposite-Spin Energy  =      -0.7678736589866354 [Eh]
	 SCS Correlation Energy    =      -0.8230218509990759 [Eh]
	 SCS Total Energy          =    -158.1742961351110068 [Eh]
	-----------------------------------------------------------


  -Total Gradient:
     Atom            X                  Y                   Z
    ------   -----------------  -----------------  -----------------
       1       -0.000027531691     0.000036777463     0.000049878521
       2       -0.000001323199     0.000047992984    -0.000038798737
       3       -0.000006901182    -0.000044771444    -0.000009014650
       4        0.000052999976    -0.000065563889    -0.000000254702
       5       -0.000005109749     0.000000708472    -0.000033878967
       6       -0.000021642438    -0.000006708727     0.000027576315
       7        0.000069302589    -0.000005725879     0.000015035750
       8       -0.000017526270    -0.000010814208     0.000032798402
       9        0.000000802281     0.000000154085    -0.000040492044
      10        0.000030720552     0.000018933789     0.000010673741
      11        0.000027752283    -0.000062425022    -0.000002123939
      12        0.000022111046     0.000021466454     0.000064333078
      13        0.000046389250     0.000036003223    -0.000035343115
      14       -0.000170043446     0.000033972697    -0.000040389653


*** tstop() called on gpu-2-7.local at Wed Jun 14 14:55:21 2017
Module time:
	user time   =     368.66 seconds =       6.14 minutes
	system time =       5.70 seconds =       0.09 minutes
	total time  =        375 seconds =       6.25 minutes
Total time:
	user time   =    2125.80 seconds =      35.43 minutes
	system time =      30.12 seconds =       0.50 minutes
	total time  =       2160 seconds =      36.00 minutes

			-----------------------------------------
			 OPTKING 2.0: for geometry optimizations 
			  - R.A. King,  Bethel University        
			-----------------------------------------

	Previous internal coordinate definitions found.
	---Fragment 1 Geometry and Gradient---
	 H          -4.5692215247        1.9983864151        0.8464817512
	 H          -3.7372219202        2.4973290454       -2.3203895090
	 H          -4.0143535306       -0.5864646432       -1.1470342387
	 C          -3.3792915975        1.3135894442       -0.6808335717
	 H           0.4885576554        2.5520391608       -1.1909864678
	 H          -0.3383634597        2.0560708242        1.9565250050
	 C          -0.5782934710        1.3046274733        0.0536202140
	 H          -0.4582224139       -2.5649610162        1.2029899804
	 H           0.3717821166       -2.0671362057       -1.9557988765
	 C           0.5942599198       -1.3107478283       -0.0504612582
	 H           4.1747767705       -3.1946568084        0.5935241393
	 H           3.6125386271       -0.5958004797        2.5926496770
	 H           4.4472020709       -0.0952727040       -0.5838760917
	 C           3.3652169713       -1.3074299174        0.6781713586
	            -0.0000275317        0.0000367775        0.0000498785
	            -0.0000013232        0.0000479930       -0.0000387987
	            -0.0000069012       -0.0000447714       -0.0000090147
	             0.0000530000       -0.0000655639       -0.0000002547
	            -0.0000051097        0.0000007085       -0.0000338790
	            -0.0000216424       -0.0000067087        0.0000275763
	             0.0000693026       -0.0000057259        0.0000150358
	            -0.0000175263       -0.0000108142        0.0000327984
	             0.0000008023        0.0000001541       -0.0000404920
	             0.0000307206        0.0000189338        0.0000106737
	             0.0000277523       -0.0000624250       -0.0000021239
	             0.0000221110        0.0000214665        0.0000643331
	             0.0000463893        0.0000360032       -0.0000353431
	            -0.0001700434        0.0000339727       -0.0000403897

	---Fragment 1 Intrafragment Coordinates---
	 - Coordinate -           - BOHR/RAD -       - ANG/DEG -
	 R(1,4)           =         2.053673	       1.086757
	 R(2,4)           =         2.053655	       1.086747
	 R(3,4)           =         2.056904	       1.088466
	 R(4,7)           =         2.895703	       1.532340
	 R(5,7)           =         2.059916	       1.090060
	 R(6,7)           =         2.059922	       1.090064
	 R(7,10)          =         2.868083	       1.517724
	 R(8,10)          =         2.062016	       1.091172
	 R(9,10)          =         2.062021	       1.091175
	 R(10,14)         =         2.865156	       1.516175
	 R(11,14)         =         2.055280	       1.087608
	 R(12,14)         =         2.057380	       1.088719
	 R(13,14)         =         2.057372	       1.088715
	 B(1,4,2)         =         1.876067	     107.490719
	 B(1,4,3)         =         1.873069	     107.318959
	 B(1,4,7)         =         1.952895	     111.892656
	 B(2,4,3)         =         1.873070	     107.319001
	 B(2,4,7)         =         1.952892	     111.892474
	 B(3,4,7)         =         1.931868	     110.687885
	 B(4,7,5)         =         1.923941	     110.233700
	 B(4,7,6)         =         1.923929	     110.233039
	 B(4,7,10)        =         1.970424	     112.896975
	 B(5,7,6)         =         1.851382	     106.076379
	 B(5,7,10)        =         1.894991	     108.574978
	 B(6,7,10)        =         1.895001	     108.575565
	 B(7,10,8)        =         1.900668	     108.900275
	 B(7,10,9)        =         1.900667	     108.900198
	 B(7,10,14)       =         1.966115	     112.650089
	 B(8,10,9)        =         1.858239	     106.469237
	 B(8,10,14)       =         1.917447	     109.861613
	 B(9,10,14)       =         1.917453	     109.861952
	 B(10,14,11)      =         1.949165	     111.678949
	 B(10,14,12)      =         1.931898	     110.689578
	 B(10,14,13)      =         1.931891	     110.689210
	 B(11,14,12)      =         1.884499	     107.973841
	 B(11,14,13)      =         1.884504	     107.974129
	 B(12,14,13)      =         1.879483	     107.686465
	 D(1,4,7,5)       =        -2.072300	    -118.734072
	 D(1,4,7,6)       =        -0.034292	      -1.964807
	 D(1,4,7,10)      =         2.088299	     119.650700
	 D(2,4,7,5)       =         0.034338	       1.967423
	 D(2,4,7,6)       =         2.072346	     118.736687
	 D(2,4,7,10)      =        -2.088248	    -119.647806
	 D(3,4,7,5)       =         2.122611	     121.616641
	 D(3,4,7,6)       =        -2.122566	    -121.614094
	 D(3,4,7,10)      =         0.000025	       0.001413
	 D(4,7,10,8)      =        -1.009793	     -57.856895
	 D(4,7,10,9)      =         1.009885	      57.862154
	 D(4,7,10,14)     =        -3.141543	    -179.997182
	 D(5,7,10,8)      =         3.134537	     179.595751
	 D(5,7,10,9)      =        -1.128970	     -64.685199
	 D(5,7,10,14)     =         1.002787	      57.455464
	 D(6,7,10,8)      =         1.129054	      64.690038
	 D(6,7,10,9)      =        -3.134453	    -179.590913
	 D(6,7,10,14)     =        -1.002696	     -57.450249
	 D(7,10,14,11)    =         3.141563	     179.998312
	 D(7,10,14,12)    =         1.041279	      59.660884
	 D(7,10,14,13)    =        -1.041336	     -59.664146
	 D(8,10,14,11)    =         1.019307	      58.402015
	 D(8,10,14,12)    =        -1.080977	     -61.935413
	 D(8,10,14,13)    =         3.119594	     178.739558
	 D(9,10,14,11)    =        -1.019364	     -58.405249
	 D(9,10,14,12)    =        -3.119648	    -178.742677
	 D(9,10,14,13)    =         1.080922	      61.932294

	Current energy   :      -158.1566135760

	Energy change for the previous step:
		Projected    :        -0.0000143125
		Actual       :        -0.0000059279

	Performing BFGS update.
	Previous computed or guess Hessian on step 1.
	Steps to be used in Hessian update: 4 3
	Adding user-defined constraint: Fragment 1; Coordinate 46:
		Value =     0.000025; Fixed value    =     0.000020
		Force =    -0.000003; Force constant =     0.600000
	Removing off-diagonal coupling between coordinate 46 and others.
	Taking RFO optimization step.
	Going to follow RFO solution 1.
	Using RFO vector 1.
	Norm of target step-size    0.00124
	Projected energy change by RFO approximation:        -0.0000003305

	Back-transformation to cartesian coordinates...
	Could not converge backtransformation.
	Using first guess instead.

	--- Internal Coordinate Step in ANG or DEG, aJ/ANG or AJ/DEG ---
	 ---------------------------------------------------------------------------
	   Coordinate                Previous        Force       Change         New 
	   ----------                --------       ------       ------       ------
	    1 R(1,4)          =      1.086757    -0.000538    -0.000106     1.086651
	    2 R(2,4)          =      1.086747    -0.000485    -0.000096     1.086651
	    3 R(3,4)          =      1.088466    -0.000375    -0.000078     1.088388
	    4 R(4,7)          =      1.532340     0.000142     0.000017     1.532357
	    5 R(5,7)          =      1.090060    -0.000150    -0.000034     1.090027
	    6 R(6,7)          =      1.090064    -0.000169    -0.000037     1.090027
	    7 R(7,10)         =      1.517724     0.000478     0.000102     1.517827
	    8 R(8,10)         =      1.091172    -0.000292    -0.000061     1.091111
	    9 R(9,10)         =      1.091175    -0.000307    -0.000064     1.091111
	   10 R(10,14)        =      1.516175     0.000616     0.000142     1.516317
	   11 R(11,14)        =      1.087608    -0.000563    -0.000112     1.087495
	   12 R(12,14)        =      1.088719    -0.000576    -0.000113     1.088605
	   13 R(13,14)        =      1.088715    -0.000554    -0.000109     1.088605
	   14 B(1,4,2)        =    107.490719    -0.000000     0.005583   107.496303
	   15 B(1,4,3)        =    107.318959    -0.000001    -0.006950   107.312009
	   16 B(1,4,7)        =    111.892656     0.000001     0.005186   111.897842
	   17 B(2,4,3)        =    107.319001    -0.000001    -0.007162   107.311839
	   18 B(2,4,7)        =    111.892474     0.000001     0.005432   111.897906
	   19 B(3,4,7)        =    110.687885     0.000000    -0.002862   110.685023
	   20 B(4,7,5)        =    110.233700    -0.000000     0.006102   110.239802
	   21 B(4,7,6)        =    110.233039     0.000000     0.006999   110.240038
	   22 B(4,7,10)       =    112.896975     0.000003     0.012593   112.909568
	   23 B(5,7,6)        =    106.076379    -0.000001    -0.019309   106.057070
	   24 B(5,7,10)       =    108.574978    -0.000001    -0.003926   108.571052
	   25 B(6,7,10)       =    108.575565    -0.000001    -0.004746   108.570820
	   26 B(7,10,8)       =    108.900275    -0.000000     0.001338   108.901613
	   27 B(7,10,9)       =    108.900198    -0.000000     0.001326   108.901525
	   28 B(7,10,14)      =    112.650089     0.000002     0.009943   112.660031
	   29 B(8,10,9)       =    106.469237    -0.000000    -0.011043   106.458194
	   30 B(8,10,14)      =    109.861613    -0.000001    -0.001079   109.860534
	   31 B(9,10,14)      =    109.861952    -0.000001    -0.001642   109.860311
	   32 B(10,14,11)     =    111.678949     0.000000     0.001651   111.680600
	   33 B(10,14,12)     =    110.689578    -0.000001    -0.007751   110.681827
	   34 B(10,14,13)     =    110.689210    -0.000001    -0.007192   110.682018
	   35 B(11,14,12)     =    107.973841     0.000001     0.005140   107.978981
	   36 B(11,14,13)     =    107.974129     0.000001     0.004880   107.979009
	   37 B(12,14,13)     =    107.686465     0.000001     0.003933   107.690399
	   38 D(1,4,7,5)      =   -118.734072    -0.000000     0.000616  -118.733456
	   39 D(1,4,7,6)      =     -1.964807    -0.000000    -0.015144    -1.979952
	   40 D(1,4,7,10)     =    119.650700    -0.000000    -0.007468   119.643232
	   41 D(2,4,7,5)      =      1.967423     0.000000     0.015308     1.982730
	   42 D(2,4,7,6)      =    118.736687     0.000000    -0.000453   118.736235
	   43 D(2,4,7,10)     =   -119.647806     0.000000     0.007224  -119.640582
	   44 D(3,4,7,5)      =    121.616641     0.000000     0.007909   121.624550
	   45 D(3,4,7,6)      =   -121.614094    -0.000000    -0.007851  -121.621945
	   46 D(3,4,7,10)     =      0.001413    -0.000000    -0.000175     0.001238
	   47 D(4,7,10,8)     =    -57.856895     0.000000     0.001755   -57.855140
	   48 D(4,7,10,9)     =     57.862154    -0.000000    -0.009926    57.852229
	   49 D(4,7,10,14)    =   -179.997182    -0.000000    -0.004447  -180.001629
	   50 D(5,7,10,8)     =    179.595751    -0.000000    -0.011631   179.584120
	   51 D(5,7,10,9)     =    -64.685199    -0.000000    -0.023312   -64.708511
	   52 D(5,7,10,14)    =     57.455464    -0.000000    -0.017834    57.437631
	   53 D(6,7,10,8)     =     64.690038     0.000000     0.015697    64.705735
	   54 D(6,7,10,9)     =   -179.590913     0.000000     0.004017  -179.586896
	   55 D(6,7,10,14)    =    -57.450249     0.000000     0.009495   -57.440754
	   56 D(7,10,14,11)   =    179.998312     0.000000     0.001688   180.000000
	   57 D(7,10,14,12)   =     59.660884    -0.000000    -0.000224    59.660659
	   58 D(7,10,14,13)   =    -59.664146     0.000000     0.004505   -59.659640
	   59 D(8,10,14,11)   =     58.402015    -0.000000    -0.005599    58.396417
	   60 D(8,10,14,12)   =    -61.935413    -0.000000    -0.007937   -61.943350
	   61 D(8,10,14,13)   =    178.739558    -0.000000    -0.003208   178.736350
	   62 D(9,10,14,11)   =    -58.405249     0.000000     0.009412   -58.395837
	   63 D(9,10,14,12)   =   -178.742677     0.000000     0.007073  -178.735603
	   64 D(9,10,14,13)   =     61.932294     0.000000     0.011803    61.944097
	 ---------------------------------------------------------------------------
	Successfully symmetrized geometry.
	 Forces used to impose fixed constraints are not included.
	  Forces zeroed: 46 

  ==> Convergence Check <==

  Measures of convergence in internal coordinates in au.
  Criteria marked as inactive (o), active & met (*), and active & unmet ( ).
  ---------------------------------------------------------------------------------------------
   Step     Total Energy     Delta E     MAX Force     RMS Force      MAX Disp      RMS Disp   
  ---------------------------------------------------------------------------------------------
    Convergence Criteria    1.00e-06 *    3.00e-04 *             o    1.20e-03 *             o
  ---------------------------------------------------------------------------------------------
      5    -158.15661358   -5.93e-06      7.48e-05 *    2.60e-05 o    4.07e-04 *    1.55e-04 o  ~
  ---------------------------------------------------------------------------------------------


  **** Optimization is complete! (in 5 steps) ****

  ==> Optimization Summary <==

  Measures of convergence in internal coordinates in au.
  --------------------------------------------------------------------------------------------------------------- ~
   Step         Total Energy             Delta E       MAX Force       RMS Force        MAX Disp        RMS Disp  ~
  --------------------------------------------------------------------------------------------------------------- ~
      1    -158.152152803106   -158.152152803106      0.01303158      0.00573507      0.02719820      0.01250980  ~
      2    -158.155282246122     -0.003129443016      0.00492048      0.00239787      0.02955168      0.01253060  ~
      3    -158.156375638360     -0.001093392238      0.00175512      0.00068751      0.03158491      0.01093418  ~
      4    -158.156607648116     -0.000232009756      0.00095582      0.00017264      0.00442542      0.00160824  ~
      5    -158.156613575971     -0.000005927855      0.00007477      0.00002601      0.00040687      0.00015531  ~
  --------------------------------------------------------------------------------------------------------------- ~

	Writing optimization data to binary file.
	Final energy is   -158.1566135759714
	Final (previous) structure:
	Cartesian Geometry (in Angstrom)
	    H    -2.4179278919   1.0575005448   0.4479388502
	    H    -1.9776526636   1.3215296132  -1.2278972432
	    H    -2.1243043956  -0.3103437228  -0.6069843766
	    C    -1.7882440946   0.6951215953  -0.3602816090
	    H     0.2585335763   1.3504809593  -0.6302428945
	    H    -0.1790542311   1.0880258194   1.0353484407
	    C    -0.3060197247   0.6903791246   0.0283745952
	    H    -0.2424808579  -1.3573189107   0.6365948798
	    H     0.1967386227  -1.0938813671  -1.0349641901
	    C     0.3144688056  -0.6936178769  -0.0267029478
	    H     2.2091967179  -1.6905395723   0.3140794472
	    H     1.9116731066  -0.3152840347   1.3719711189
	    H     2.3533579779  -0.0504161436  -0.3089739204
	    C     1.7807961232  -0.6918621141   0.3588728265
	Saving final (previous) structure.
			--------------------------
			 OPTKING Finished Execution 
			--------------------------

    Final optimized geometry and variables:
    Molecular point group: c1
    Full point group: C1

    Geometry (in Angstrom), charge = 0, multiplicity = 1:

    H           -2.417927891855     1.057500544839     0.447938850244
    H           -1.977652663606     1.321529613193    -1.227897243230
    H           -2.124304395592    -0.310343722802    -0.606984376599
    C           -1.788244094555     0.695121595308    -0.360281608964
    H            0.258533576303     1.350480959333    -0.630242894490
    H           -0.179054231110     1.088025819391     1.035348440695
    C           -0.306019724743     0.690379124574     0.028374595194
    H           -0.242480857922    -1.357318910704     0.636594879792
    H            0.196738622679    -1.093881367121    -1.034964190054
    C            0.314468805556    -0.693617876927    -0.026702947760
    H            2.209196717879    -1.690539572286     0.314079447249
    H            1.911673106610    -0.315284034702     1.371971118938
    H            2.353357977889    -0.050416143556    -0.308973920353
    C            1.780796123193    -0.691862114143     0.358872826470

	Cleaning optimization helper files.

*** Psi4 exiting successfully. Buy a developer a beer!
