
    -----------------------------------------------------------------------
          Psi4: An Open-Source Ab Initio Electronic Structure Package
                               Psi4 1.1 release

                         Git: Rev {HEAD} add49b9 


    R. M. Parrish, L. A. Burns, D. G. A. Smith, A. C. Simmonett,
    A. E. DePrince III, E. G. Hohenstein, U. Bozkaya, A. Yu. Sokolov,
    R. Di Remigio, R. M. Richard, J. F. Gonthier, A. M. James,
    H. R. McAlexander, A. Kumar, M. Saitow, X. Wang, B. P. Pritchard,
    P. Verma, H. F. Schaefer III, K. Patkowski, R. A. King, E. F. Valeev,
    F. A. Evangelista, J. M. Turney, T. D. Crawford, and C. D. Sherrill,
    J. Chem. Theory Comput. in press (2017).
    (doi: 10.1021/acs.jctc.7b00174)

    -----------------------------------------------------------------------


    Psi4 started on: Wednesday, 14 June 2017 02:20PM

    Process ID:  26762
    PSIDATADIR: /cbio/jclab/home/chayas/anaconda/envs/py35/share/psi4
    Memory:     500.0 MiB
    Threads:    1
    
  ==> Input File <==

--------------------------------------------------------------------------

memory 5000 mb

molecule butane {
  symmetry C1
  0 1 
  H      1.577   0.907   -8.166
  H      1.790   2.399   -9.050
  H      2.025   0.866   -9.854
  C      2.142   1.395   -8.932
  H      4.169   2.051   -9.210
  H      3.731   1.788   -7.539
  C      3.631   1.416   -8.537
  H      3.665   -0.647   -7.940
  H      4.104   -0.384   -9.610
  C      4.203   -0.012   -8.612
  H      6.088   -0.983   -8.270
  H      5.791   0.381   -7.220
  H      6.230   0.644   -8.890
  C      5.691   0.009   -8.218
  units Angstrom
}

dih_string = "10 7 4 3 310"
set optking fixed_dihedral = $dih_string

optimize('MP2/aug-cc-pvtz')
--------------------------------------------------------------------------

  Memory set to   4.657 GiB by Python driver.
gradient() will perform analytic gradient computation.

*** tstart() called on gpu-1-17.local
*** at Wed Jun 14 14:20:59 2017

    SCF Algorithm Type (re)set to DF.

*** tstart() called on gpu-1-17.local
*** at Wed Jun 14 14:20:59 2017

   => Loading Basis Set <=

    Name: AUG-CC-PVTZ
    Role: ORBITAL
    Keyword: BASIS
    atoms 1-3, 5-6, 8-9, 11-13 entry H          line    34 file /cbio/jclab/home/chayas/anaconda/envs/py35/share/psi4/basis/aug-cc-pvtz.gbs 
    atoms 4, 7, 10, 14         entry C          line   221 file /cbio/jclab/home/chayas/anaconda/envs/py35/share/psi4/basis/aug-cc-pvtz.gbs 


         ---------------------------------------------------------
                                   SCF
            by Justin Turney, Rob Parrish, and Andy Simmonett
                              RHF Reference
                        1 Threads,   4768 MiB Core
         ---------------------------------------------------------

  ==> Geometry <==

    Molecular point group: c1
    Full point group: C1

    Geometry (in Angstrom), charge = 0, multiplicity = 1:

       Center              X                  Y                   Z               Mass       
    ------------   -----------------  -----------------  -----------------  -----------------
           H         -2.339793382205     0.204965294236     0.408776029323     1.007825032070
           H         -2.126793382205     1.696965294236    -0.475223970677     1.007825032070
           H         -1.891793382205     0.163965294236    -1.279223970677     1.007825032070
           C         -1.774793382205     0.692965294236    -0.357223970677    12.000000000000
           H          0.252206617795     1.348965294236    -0.635223970677     1.007825032070
           H         -0.185793382205     1.085965294236     1.035776029323     1.007825032070
           C         -0.285793382205     0.713965294236     0.037776029323    12.000000000000
           H         -0.251793382205    -1.349034705764     0.634776029323     1.007825032070
           H          0.187206617795    -1.086034705764    -1.035223970677     1.007825032070
           C          0.286206617795    -0.714034705764    -0.037223970677    12.000000000000
           H          2.171206617795    -1.685034705764     0.304776029323     1.007825032070
           H          1.874206617795    -0.321034705764     1.354776029323     1.007825032070
           H          2.313206617795    -0.058034705764    -0.315223970677     1.007825032070
           C          1.774206617795    -0.693034705764     0.356776029323    12.000000000000

  Running in c1 symmetry.

  Rotational constants: A =      0.76950  B =      0.12464  C =      0.11638 [cm^-1]
  Rotational constants: A =  23069.06386  B =   3736.71706  C =   3488.94141 [MHz]
  Nuclear repulsion =  131.822795879308558

  Charge       = 0
  Multiplicity = 1
  Electrons    = 34
  Nalpha       = 17
  Nbeta        = 17

  ==> Algorithm <==

  SCF Algorithm Type is DF.
  DIIS enabled.
  MOM disabled.
  Fractional occupation disabled.
  Guess Type is SAD.
  Energy threshold   = 1.00e-10
  Density threshold  = 1.00e-10
  Integral threshold = 0.00e+00

  ==> Primary Basis <==

  Basis Set: AUG-CC-PVTZ
    Blend: AUG-CC-PVTZ
    Number of shells: 146
    Number of basis function: 414
    Number of Cartesian functions: 470
    Spherical Harmonics?: true
    Max angular momentum: 3

   => Loading Basis Set <=

    Name: (AUG-CC-PVTZ AUX)
    Role: JKFIT
    Keyword: DF_BASIS_SCF
    atoms 1-3, 5-6, 8-9, 11-13 entry H          line    69 file /cbio/jclab/home/chayas/anaconda/envs/py35/share/psi4/basis/aug-cc-pvtz-jkfit.gbs 
    atoms 4, 7, 10, 14         entry C          line   161 file /cbio/jclab/home/chayas/anaconda/envs/py35/share/psi4/basis/aug-cc-pvtz-jkfit.gbs 

  ==> Pre-Iterations <==

   -------------------------------------------------------
    Irrep   Nso     Nmo     Nalpha   Nbeta   Ndocc  Nsocc
   -------------------------------------------------------
     A        414     414       0       0       0       0
   -------------------------------------------------------
    Total     414     414      17      17      17       0
   -------------------------------------------------------

  ==> Integral Setup <==

  ==> DFJK: Density-Fitted J/K Matrices <==

    J tasked:                  Yes
    K tasked:                  Yes
    wK tasked:                  No
    OpenMP threads:              1
    Integrals threads:           1
    Memory (MB):              3576
    Algorithm:                Core
    Integral Cache:           NONE
    Schwarz Cutoff:          1E-12
    Fitting Condition:       1E-12

   => Auxiliary Basis Set <=

  Basis Set: (AUG-CC-PVTZ AUX)
    Blend: AUG-CC-PVTZ-JKFIT
    Number of shells: 260
    Number of basis function: 876
    Number of Cartesian functions: 1074
    Spherical Harmonics?: true
    Max angular momentum: 4

  Minimum eigenvalue in the overlap matrix is 7.9179677218E-06.
  Using Symmetric Orthogonalization.

  SCF Guess: Superposition of Atomic Densities via on-the-fly atomic UHF.

  ==> Iterations <==

                           Total Energy        Delta E     RMS |[F,P]|

   @DF-RHF iter   0:  -158.77646321240132   -1.58776e+02   9.13375e-03 
   @DF-RHF iter   1:  -157.21373658406577    1.56273e+00   1.11566e-03 
   @DF-RHF iter   2:  -157.33159478806488   -1.17858e-01   4.30811e-04 DIIS
   @DF-RHF iter   3:  -157.34989662290002   -1.83018e-02   1.24811e-04 DIIS
   @DF-RHF iter   4:  -157.35234981008966   -2.45319e-03   2.19725e-05 DIIS
   @DF-RHF iter   5:  -157.35243065496732   -8.08449e-05   7.21739e-06 DIIS
   @DF-RHF iter   6:  -157.35243867418066   -8.01921e-06   1.39385e-06 DIIS
   @DF-RHF iter   7:  -157.35243908694576   -4.12765e-07   2.28306e-07 DIIS
   @DF-RHF iter   8:  -157.35243909950026   -1.25545e-08   3.82062e-08 DIIS
   @DF-RHF iter   9:  -157.35243909981335   -3.13094e-10   8.53342e-09 DIIS
   @DF-RHF iter  10:  -157.35243909983154   -1.81899e-11   1.61463e-09 DIIS
   @DF-RHF iter  11:  -157.35243909983214   -5.96856e-13   2.50683e-10 DIIS
   @DF-RHF iter  12:  -157.35243909983373   -1.59162e-12   5.64490e-11 DIIS

  ==> Post-Iterations <==

    Orbital Energies (a.u.)
    -----------------------

    Doubly Occupied:                                                      

       1A    -11.207057     2A    -11.206468     3A    -11.198642  
       4A    -11.198624     5A     -1.070682     6A     -0.981210  
       7A     -0.861634     8A     -0.794877     9A     -0.647558  
      10A     -0.587661    11A     -0.575243    12A     -0.570650  
      13A     -0.514592    14A     -0.503488    15A     -0.476062  
      16A     -0.468545    17A     -0.441700  

    Virtual:                                                              

      18A      0.032268    19A      0.037065    20A      0.039644  
      21A      0.040907    22A      0.056624    23A      0.058500  
      24A      0.059658    25A      0.061153    26A      0.081984  
      27A      0.085058    28A      0.096709    29A      0.112369  
      30A      0.123313    31A      0.130748    32A      0.135629  
      33A      0.142020    34A      0.143709    35A      0.146827  
      36A      0.148427    37A      0.159580    38A      0.159790  
      39A      0.167852    40A      0.170480    41A      0.202206  
      42A      0.209437    43A      0.211750    44A      0.230033  
      45A      0.249361    46A      0.250714    47A      0.251862  
      48A      0.270210    49A      0.275376    50A      0.282030  
      51A      0.282618    52A      0.316006    53A      0.318667  
      54A      0.332170    55A      0.337814    56A      0.339717  
      57A      0.348559    58A      0.357293    59A      0.358576  
      60A      0.360427    61A      0.373924    62A      0.374367  
      63A      0.384490    64A      0.389023    65A      0.390437  
      66A      0.392312    67A      0.395396    68A      0.402696  
      69A      0.408830    70A      0.414588    71A      0.424528  
      72A      0.430254    73A      0.443627    74A      0.449247  
      75A      0.457658    76A      0.462286    77A      0.464788  
      78A      0.469333    79A      0.475871    80A      0.477412  
      81A      0.485366    82A      0.491795    83A      0.499434  
      84A      0.506112    85A      0.507384    86A      0.511469  
      87A      0.522978    88A      0.526237    89A      0.528958  
      90A      0.537357    91A      0.545951    92A      0.561873  
      93A      0.565435    94A      0.576125    95A      0.587204  
      96A      0.595885    97A      0.599090    98A      0.613620  
      99A      0.626721   100A      0.634371   101A      0.639622  
     102A      0.655956   103A      0.685565   104A      0.691930  
     105A      0.702748   106A      0.705812   107A      0.763994  
     108A      0.777636   109A      0.797363   110A      0.817064  
     111A      0.824101   112A      0.826740   113A      0.838981  
     114A      0.843451   115A      0.846515   116A      0.856876  
     117A      0.861566   118A      0.865212   119A      0.887740  
     120A      0.890939   121A      0.898234   122A      0.904523  
     123A      0.908956   124A      0.922256   125A      0.924659  
     126A      0.933615   127A      0.938938   128A      0.947130  
     129A      0.949501   130A      0.960691   131A      0.964283  
     132A      0.969256   133A      0.983156   134A      0.990889  
     135A      0.996284   136A      1.010696   137A      1.012606  
     138A      1.030997   139A      1.048605   140A      1.055579  
     141A      1.072092   142A      1.079462   143A      1.097284  
     144A      1.104882   145A      1.111842   146A      1.127609  
     147A      1.131805   148A      1.133431   149A      1.136933  
     150A      1.162224   151A      1.165644   152A      1.169183  
     153A      1.175063   154A      1.199902   155A      1.202864  
     156A      1.214819   157A      1.225897   158A      1.244124  
     159A      1.253542   160A      1.256578   161A      1.261558  
     162A      1.266683   163A      1.274641   164A      1.280422  
     165A      1.289725   166A      1.305570   167A      1.314743  
     168A      1.330288   169A      1.343699   170A      1.353187  
     171A      1.361787   172A      1.375319   173A      1.393406  
     174A      1.428790   175A      1.433129   176A      1.438857  
     177A      1.463239   178A      1.486213   179A      1.496197  
     180A      1.503304   181A      1.530157   182A      1.533298  
     183A      1.551234   184A      1.557700   185A      1.577641  
     186A      1.581484   187A      1.596631   188A      1.616362  
     189A      1.627867   190A      1.637604   191A      1.646584  
     192A      1.649842   193A      1.684292   194A      1.688390  
     195A      1.700503   196A      1.702986   197A      1.712082  
     198A      1.715600   199A      1.737682   200A      1.740378  
     201A      1.748872   202A      1.758374   203A      1.760952  
     204A      1.778493   205A      1.780390   206A      1.787644  
     207A      1.793802   208A      1.801697   209A      1.829393  
     210A      1.850364   211A      1.864261   212A      1.871111  
     213A      1.890384   214A      1.900458   215A      1.919166  
     216A      1.921652   217A      1.966757   218A      1.977153  
     219A      1.983905   220A      1.986613   221A      1.994978  
     222A      1.999157   223A      2.034627   224A      2.051055  
     225A      2.058619   226A      2.070164   227A      2.098406  
     228A      2.105115   229A      2.145200   230A      2.151091  
     231A      2.161461   232A      2.189686   233A      2.194349  
     234A      2.206410   235A      2.246816   236A      2.258026  
     237A      2.261034   238A      2.291285   239A      2.307477  
     240A      2.322395   241A      2.334041   242A      2.334203  
     243A      2.345387   244A      2.352853   245A      2.377149  
     246A      2.388591   247A      2.433090   248A      2.457787  
     249A      2.471913   250A      2.473680   251A      2.504264  
     252A      2.548632   253A      2.607293   254A      2.618657  
     255A      2.650539   256A      2.676402   257A      2.689547  
     258A      2.885539   259A      2.901447   260A      3.006719  
     261A      3.236187   262A      3.255439   263A      3.274242  
     264A      3.382022   265A      3.401166   266A      3.420751  
     267A      3.452884   268A      3.462745   269A      3.480037  
     270A      3.482326   271A      3.519639   272A      3.535462  
     273A      3.562804   274A      3.575588   275A      3.592740  
     276A      3.606757   277A      3.623915   278A      3.666746  
     279A      3.690481   280A      3.694451   281A      3.719926  
     282A      3.727505   283A      3.729609   284A      3.740307  
     285A      3.753404   286A      3.759686   287A      3.791044  
     288A      3.795415   289A      3.806820   290A      3.817771  
     291A      3.844706   292A      3.857598   293A      3.881707  
     294A      3.890549   295A      3.913838   296A      3.918842  
     297A      3.931505   298A      3.938470   299A      3.967458  
     300A      4.000652   301A      4.010477   302A      4.014581  
     303A      4.020599   304A      4.027882   305A      4.045928  
     306A      4.052620   307A      4.066599   308A      4.077532  
     309A      4.135125   310A      4.180170   311A      4.209485  
     312A      4.220283   313A      4.230688   314A      4.247258  
     315A      4.254812   316A      4.270250   317A      4.278482  
     318A      4.286476   319A      4.308622   320A      4.322785  
     321A      4.349836   322A      4.367213   323A      4.375163  
     324A      4.405531   325A      4.425921   326A      4.436540  
     327A      4.537820   328A      4.556452   329A      4.579894  
     330A      4.589182   331A      4.638939   332A      4.665353  
     333A      4.691448   334A      4.706087   335A      4.726473  
     336A      4.742733   337A      4.745349   338A      4.758826  
     339A      4.766227   340A      4.804871   341A      4.812349  
     342A      4.859124   343A      4.870250   344A      4.883531  
     345A      4.888702   346A      4.903424   347A      4.926002  
     348A      4.954182   349A      4.973100   350A      4.998763  
     351A      5.046982   352A      5.062579   353A      5.079903  
     354A      5.101887   355A      5.127164   356A      5.183799  
     357A      5.187275   358A      5.215102   359A      5.224190  
     360A      5.229064   361A      5.257646   362A      5.271158  
     363A      5.274031   364A      5.295586   365A      5.308292  
     366A      5.362020   367A      5.400016   368A      5.423809  
     369A      5.436158   370A      5.441649   371A      5.456855  
     372A      5.461888   373A      5.483740   374A      5.507886  
     375A      5.576567   376A      5.598057   377A      5.627443  
     378A      5.636021   379A      5.685542   380A      5.690596  
     381A      5.694542   382A      5.752245   383A      5.772827  
     384A      5.802899   385A      5.826433   386A      5.877919  
     387A      5.906240   388A      5.922127   389A      5.950603  
     390A      6.031563   391A      6.105350   392A      6.156637  
     393A      6.167207   394A      6.173047   395A      6.255595  
     396A      6.262094   397A      6.278876   398A      6.307478  
     399A      6.310597   400A      6.360747   401A      6.400464  
     402A      6.441860   403A      6.551397   404A      6.558260  
     405A      6.752162   406A      6.783521   407A      6.824912  
     408A      6.842491   409A      6.862183   410A      6.984392  
     411A     18.019177   412A     18.375510   413A     18.462910  
     414A     18.897384  

    Final Occupation by Irrep:
              A 
    DOCC [    17 ]

  Energy converged.

  @DF-RHF Final Energy:  -157.35243909983373

   => Energetics <=

    Nuclear Repulsion Energy =            131.8227958793085577
    One-Electron Energy =                -471.7410848179727623
    Two-Electron Energy =                 182.5658498388304736
    DFT Exchange-Correlation Energy =       0.0000000000000000
    Empirical Dispersion Energy =           0.0000000000000000
    PCM Polarization Energy =               0.0000000000000000
    EFP Energy =                            0.0000000000000000
    Total Energy =                       -157.3524390998337310



Properties will be evaluated at   0.000000,   0.000000,   0.000000 Bohr

Properties computed using the SCF density matrix

  Nuclear Dipole Moment: (a.u.)
     X:     0.0019      Y:     0.0015      Z:    -0.0012

  Electronic Dipole Moment: (a.u.)
     X:    -0.0021      Y:    -0.0022      Z:     0.0021

  Dipole Moment: (a.u.)
     X:    -0.0001      Y:    -0.0007      Z:     0.0009     Total:     0.0012

  Dipole Moment: (Debye)
     X:    -0.0003      Y:    -0.0017      Z:     0.0024     Total:     0.0029


*** tstop() called on gpu-1-17.local at Wed Jun 14 14:22:29 2017
Module time:
	user time   =      88.06 seconds =       1.47 minutes
	system time =       0.69 seconds =       0.01 minutes
	total time  =         90 seconds =       1.50 minutes
Total time:
	user time   =      88.07 seconds =       1.47 minutes
	system time =       0.69 seconds =       0.01 minutes
	total time  =         90 seconds =       1.50 minutes

  //>>>>>>>>>>>>>>>>>>>>>>>>>>>>>>>>>>>//
  //               DFMP2               //
  //<<<<<<<<<<<<<<<<<<<<<<<<<<<<<<<<<<<//

   => Loading Basis Set <=

    Name: (AUG-CC-PVTZ AUX)
    Role: RIFIT
    Keyword: DF_BASIS_MP2
    atoms 1-3, 5-6, 8-9, 11-13 entry H          line    29 file /cbio/jclab/home/chayas/anaconda/envs/py35/share/psi4/basis/aug-cc-pvtz-ri.gbs 
    atoms 4, 7, 10, 14         entry C          line   147 file /cbio/jclab/home/chayas/anaconda/envs/py35/share/psi4/basis/aug-cc-pvtz-ri.gbs 

	 --------------------------------------------------------
	                          DF-MP2                         
	      2nd-Order Density-Fitted Moller-Plesset Theory     
	              RMP2 Wavefunction,   1 Threads             
	                                                         
	        Rob Parrish, Justin Turney, Andy Simmonett,      
	           Ed Hohenstein, and C. David Sherrill          
	 --------------------------------------------------------

   => Auxiliary Basis Set <=

  Basis Set: (AUG-CC-PVTZ AUX)
    Blend: AUG-CC-PVTZ-RI
    Number of shells: 252
    Number of basis function: 884
    Number of Cartesian functions: 1094
    Spherical Harmonics?: true
    Max angular momentum: 4

	 --------------------------------------------------------
	                 NBF =   414, NAUX =   884
	 --------------------------------------------------------
	   CLASS    FOCC     OCC    AOCC    AVIR     VIR    FVIR
	   PAIRS       0      17      17     397     397       0
	 --------------------------------------------------------


         ------------------------------------------------------------
                                     CPHF                           
                                  Rob Parrish                       
         ------------------------------------------------------------

  ==> Geometry <==

    Molecular point group: c1
    Full point group: C1

    Geometry (in Angstrom), charge = 0, multiplicity = 1:

       Center              X                  Y                   Z               Mass       
    ------------   -----------------  -----------------  -----------------  -----------------
           H         -2.339793382205     0.204965294236     0.408776029323     1.007825032070
           H         -2.126793382205     1.696965294236    -0.475223970677     1.007825032070
           H         -1.891793382205     0.163965294236    -1.279223970677     1.007825032070
           C         -1.774793382205     0.692965294236    -0.357223970677    12.000000000000
           H          0.252206617795     1.348965294236    -0.635223970677     1.007825032070
           H         -0.185793382205     1.085965294236     1.035776029323     1.007825032070
           C         -0.285793382205     0.713965294236     0.037776029323    12.000000000000
           H         -0.251793382205    -1.349034705764     0.634776029323     1.007825032070
           H          0.187206617795    -1.086034705764    -1.035223970677     1.007825032070
           C          0.286206617795    -0.714034705764    -0.037223970677    12.000000000000
           H          2.171206617795    -1.685034705764     0.304776029323     1.007825032070
           H          1.874206617795    -0.321034705764     1.354776029323     1.007825032070
           H          2.313206617795    -0.058034705764    -0.315223970677     1.007825032070
           C          1.774206617795    -0.693034705764     0.356776029323    12.000000000000

  Nuclear repulsion =  131.822795879308558
  Reference energy  = -157.352439099833731

  ==> Basis Set <==

  Basis Set: AUG-CC-PVTZ
    Blend: AUG-CC-PVTZ
    Number of shells: 146
    Number of basis function: 414
    Number of Cartesian functions: 470
    Spherical Harmonics?: true
    Max angular momentum: 3

  ==> CGRSolver (by Rob Parrish) <==

   Number of roots    =         1
   Preconditioning    =    JACOBI
   Convergence cutoff =     1E-06
   Maximum iterations =       100

  ==> CPHFRHamiltonian (by Rob Parrish) <== 

  ==> DFJK: Density-Fitted J/K Matrices <==

    J tasked:                  Yes
    K tasked:                  Yes
    wK tasked:                  No
    OpenMP threads:              1
    Integrals threads:           1
    Memory (MB):              3576
    Algorithm:                Core
    Integral Cache:           NONE
    Schwarz Cutoff:          1E-12
    Fitting Condition:       1E-12

   => Auxiliary Basis Set <=

  Basis Set: (AUG-CC-PVTZ AUX)
    Blend: AUG-CC-PVTZ-JKFIT
    Number of shells: 260
    Number of basis function: 876
    Number of Cartesian functions: 1074
    Spherical Harmonics?: true
    Max angular momentum: 4

  ==> CPHF Iterations <==

  => Iterations <=

             Iter  Converged  Remaining    Residual
  CGR           1          0          1   8.155E-02
  CGR           2          0          1   1.303E-02
  CGR           3          0          1   3.410E-03
  CGR           4          0          1   8.041E-04
  CGR           5          0          1   1.179E-04
  CGR           6          0          1   2.102E-05
  CGR           7          0          1   3.638E-06
  CGR           8          1          0   7.948E-07

    CGRSolver converged.

  ==> DFCorrGrad: Density-Fitted Correlated Gradients <==

    OpenMP threads:              1
    Integrals threads:           1
    Memory (MB):              3576
    Schwarz Cutoff:          0E+00
    Fitting Condition:       1E-12

   => Auxiliary Basis Set <=

  Basis Set: (AUG-CC-PVTZ AUX)
    Blend: AUG-CC-PVTZ-JKFIT
    Number of shells: 260
    Number of basis function: 876
    Number of Cartesian functions: 1074
    Spherical Harmonics?: true
    Max angular momentum: 4

	-----------------------------------------------------------
	 ==================> DF-MP2 Energies <==================== 
	-----------------------------------------------------------
	 Reference Energy          =    -157.3524390998337310 [Eh]
	 Singles Energy            =      -0.0000000000000001 [Eh]
	 Same-Spin Energy          =      -0.1653746567495550 [Eh]
	 Opposite-Spin Energy      =      -0.6387043777374352 [Eh]
	 Correlation Energy        =      -0.8040790344869903 [Eh]
	 Total Energy              =    -158.1565181343207200 [Eh]
	-----------------------------------------------------------
	 ================> DF-SCS-MP2 Energies <================== 
	-----------------------------------------------------------
	 SCS Same-Spin Scale       =       0.3333333333333333 [-]
	 SCS Opposite-Spin Scale   =       1.2000000000000000 [-]
	 SCS Same-Spin Energy      =      -0.0551248855831850 [Eh]
	 SCS Opposite-Spin Energy  =      -0.7664452532849222 [Eh]
	 SCS Correlation Energy    =      -0.8215701388681073 [Eh]
	 SCS Total Energy          =    -158.1740092387018422 [Eh]
	-----------------------------------------------------------


  -Total Gradient:
     Atom            X                  Y                   Z
    ------   -----------------  -----------------  -----------------
       1        0.008271469656     0.005691018910    -0.006896912861
       2        0.007999229429    -0.009568853510     0.001682155918
       3        0.003441138001     0.005348417494     0.010621144310
       4       -0.024811250213    -0.006901717520    -0.007923374020
       5       -0.007925940450    -0.007820011490     0.006252384595
       6       -0.003342514562    -0.006014518722    -0.011234954465
       7        0.021358309288     0.030919833875     0.011548014044
       8        0.008034326925     0.008644710008    -0.006352708986
       9        0.003283556928     0.005411072569     0.011537081406
      10       -0.021672040478    -0.031250370987    -0.011295164556
      11       -0.008403505069     0.009996089170    -0.000652620327
      12       -0.003303044034    -0.003987380149    -0.010994782343
      13       -0.007581932500    -0.006590990254     0.006228398759
      14        0.024652197076     0.006122700605     0.007481338523


*** tstop() called on gpu-1-17.local at Wed Jun 14 14:28:43 2017
Module time:
	user time   =     458.09 seconds =       7.63 minutes
	system time =       4.63 seconds =       0.08 minutes
	total time  =        464 seconds =       7.73 minutes
Total time:
	user time   =     458.10 seconds =       7.64 minutes
	system time =       4.63 seconds =       0.08 minutes
	total time  =        464 seconds =       7.73 minutes

			-----------------------------------------
			 OPTKING 2.0: for geometry optimizations 
			  - R.A. King,  Bethel University        
			-----------------------------------------

	Internal coordinates to be generated automatically.
	Detected frag 1 with atoms:  1 2 3 4 5 6 7 8 9 10 11 12 13 14
	---Fragment 1 Bond Connectivity---
	 1 : 4
	 2 : 4
	 3 : 4
	 4 : 1 2 3 7
	 5 : 7
	 6 : 7
	 7 : 4 5 6 10
	 8 : 10
	 9 : 10
	 10 : 7 8 9 14
	 11 : 14
	 12 : 14
	 13 : 14
	 14 : 10 11 12 13

	Assuming in current code that numbering for constraints corresponds to unified fragment.
	Fixed dihedral atom list: 
	    10     7     4     3
	---Fragment 1 Geometry and Gradient---
	 H          -4.4215686999        0.3873282729        0.7724747451
	 H          -4.0190570336        3.2067996631       -0.8980431564
	 H          -3.5749713924        0.3098495014       -2.4173829672
	 C          -3.3538734348        1.3095146257       -0.6750554727
	 H           0.4766014365        2.5491749689       -1.2003993376
	 H          -0.3510986097        2.0521769959        1.9573330304
	 C          -0.5400712230        1.3491988745        0.0713863498
	 H          -0.4758205344       -2.5493061377        1.1995528511
	 H           0.3537692379       -2.0523081647       -1.9562897908
	 C           0.5408521251       -1.3493300433       -0.0703431102
	 H           4.1029858855       -3.1842541183        0.5759432273
	 H           3.5417372241       -0.6066676730        2.5601556668
	 H           4.3713269964       -0.1096697001       -0.5956869751
	 C           3.3527646108       -1.3096457945        0.6742089862
	             0.0082714697        0.0056910189       -0.0068969129
	             0.0079992294       -0.0095688535        0.0016821559
	             0.0034411380        0.0053484175        0.0106211443
	            -0.0248112502       -0.0069017175       -0.0079233740
	            -0.0079259405       -0.0078200115        0.0062523846
	            -0.0033425146       -0.0060145187       -0.0112349545
	             0.0213583093        0.0309198339        0.0115480140
	             0.0080343269        0.0086447100       -0.0063527090
	             0.0032835569        0.0054110726        0.0115370814
	            -0.0216720405       -0.0312503710       -0.0112951646
	            -0.0084035051        0.0099960892       -0.0006526203
	            -0.0033030440       -0.0039873801       -0.0109947823
	            -0.0075819325       -0.0065909903        0.0062283988
	             0.0246521971        0.0061227006        0.0074813385

	Previous optimization step data not found.  Starting new optimization.

	---Fragment 1 Intrafragment Coordinates---
	 - Coordinate -           - BOHR/RAD -       - ANG/DEG -
	 R(1,4)           =         2.021322	       1.069638
	 R(2,4)           =         2.022840	       1.070441
	 R(3,4)           =         2.020871	       1.069399
	 R(4,7)           =         2.911397	       1.540645
	 R(5,7)           =         2.022623	       1.070326
	 R(6,7)           =         2.021555	       1.069761
	 R(7,10)          =         2.910419	       1.540128
	 R(8,10)          =         2.021436	       1.069698
	 R(9,10)          =         2.021379	       1.069668
	 R(10,14)         =         2.909087	       1.539422
	 R(11,14)         =         2.021545	       1.069756
	 R(12,14)         =         2.021555	       1.069761
	 R(13,14)         =         2.022387	       1.070201
	 B(1,4,2)         =         1.910447	     109.460532
	 B(1,4,3)         =         1.911287	     109.508689
	 B(1,4,7)         =         1.910409	     109.458399
	 B(2,4,3)         =         1.910225	     109.447856
	 B(2,4,7)         =         1.910589	     109.468670
	 B(3,4,7)         =         1.910842	     109.483171
	 B(4,7,5)         =         1.909937	     109.431343
	 B(4,7,6)         =         1.911630	     109.528316
	 B(4,7,10)        =         1.911154	     109.501062
	 B(5,7,6)         =         1.910605	     109.469614
	 B(5,7,10)        =         1.910047	     109.437654
	 B(6,7,10)        =         1.910425	     109.459295
	 B(7,10,8)        =         1.910303	     109.452301
	 B(7,10,9)        =         1.910824	     109.482155
	 B(7,10,14)       =         1.911213	     109.504437
	 B(8,10,9)        =         1.910417	     109.458846
	 B(8,10,14)       =         1.910766	     109.478806
	 B(9,10,14)       =         1.910276	     109.450772
	 B(10,14,11)      =         1.910943	     109.488965
	 B(10,14,12)      =         1.911204	     109.503926
	 B(10,14,13)      =         1.911557	     109.524173
	 B(11,14,12)      =         1.910410	     109.458432
	 B(11,14,13)      =         1.910054	     109.438058
	 B(12,14,13)      =         1.909629	     109.413709
	 D(1,4,7,5)       =        -2.966903	    -169.991041
	 D(1,4,7,6)       =        -0.872359	     -49.982489
	 D(1,4,7,10)      =         1.222712	      70.056219
	 D(2,4,7,5)       =        -0.872901	     -50.013540
	 D(2,4,7,6)       =         1.221643	      69.995012
	 D(2,4,7,10)      =        -2.966471	    -169.966280
	 D(3,4,7,5)       =         1.221095	      69.963600
	 D(3,4,7,6)       =        -2.967546	    -170.027848
	 D(3,4,7,10)      =        -0.872475	     -49.989141
	 D(4,7,10,8)      =        -1.047368	     -60.009777
	 D(4,7,10,9)      =         1.046677	      59.970178
	 D(4,7,10,14)     =         3.141107	     179.972182
	 D(5,7,10,8)      =        -3.140871	    -179.958653
	 D(5,7,10,9)      =        -1.046826	     -59.978698
	 D(5,7,10,14)     =         1.047604	      60.023306
	 D(6,7,10,8)      =         1.048439	      60.071149
	 D(6,7,10,9)      =        -3.140701	    -179.948896
	 D(6,7,10,14)     =        -1.046271	     -59.946893
	 D(7,10,14,11)    =         3.141408	     179.989448
	 D(7,10,14,12)    =         1.046747	      59.974196
	 D(7,10,14,13)    =        -1.047335	     -60.007849
	 D(8,10,14,11)    =         1.046982	      59.987626
	 D(8,10,14,12)    =        -1.047680	     -60.027626
	 D(8,10,14,13)    =         3.141424	     179.990329
	 D(9,10,14,11)    =        -1.047012	     -59.989345
	 D(9,10,14,12)    =         3.141512	     179.995403
	 D(9,10,14,13)    =         1.047431	      60.013359

	Current energy   :      -158.1565181343

	Generating empirical Hessian (Schlegel '84) for each fragment.
	Adding user-defined constraint: Fragment 1; Coordinate 46:
		Value =    -0.872475; Fixed value    =    -0.872665
		Force =    -0.000095; Force constant =     0.500000
	Removing off-diagonal coupling between coordinate 46 and others.
	Taking RFO optimization step.
	Going to follow RFO solution 1.
	Using RFO vector 1.

	Determining step-restricting scale parameter for RS-RFO.
	Maximum step size allowed    0.10000

	 Iter      |step|        alpha        rfo_root  
	------------------------------------------------
	    0     0.18918       1.00000           1
	    1     0.14825       6.36141           1
	    2     0.11932      17.72519           1
	    3     0.10455      29.57422           1
	    4     0.10034      34.27336           1
	    5     0.10000      34.68584           1
	------------------------------------------------
	Norm of target step-size    0.10000
	Projected energy change by RFO approximation:        -0.0046003596

	Back-transformation to cartesian coordinates...
	Could not converge backtransformation.
	Using first guess instead.

	--- Internal Coordinate Step in ANG or DEG, aJ/ANG or AJ/DEG ---
	 ---------------------------------------------------------------------------
	   Coordinate                Previous        Force       Change         New 
	   ----------                --------       ------       ------       ------
	    1 R(1,4)          =      1.069638     0.098079     0.012070     1.081708
	    2 R(2,4)          =      1.070441     0.097141     0.011982     1.082423
	    3 R(3,4)          =      1.069399     0.100343     0.012370     1.081769
	    4 R(4,7)          =      1.540645    -0.046531    -0.006793     1.533852
	    5 R(5,7)          =      1.070326     0.103435     0.012710     1.083036
	    6 R(6,7)          =      1.069761     0.106158     0.013027     1.082787
	    7 R(7,10)         =      1.540128    -0.075380    -0.010932     1.529195
	    8 R(8,10)         =      1.069698     0.108450     0.013305     1.083003
	    9 R(9,10)         =      1.069668     0.106690     0.013088     1.082756
	   10 R(10,14)        =      1.539422    -0.047685    -0.006949     1.532473
	   11 R(11,14)        =      1.069756     0.101801     0.012527     1.082283
	   12 R(12,14)        =      1.069761     0.098474     0.012129     1.081890
	   13 R(13,14)        =      1.070201     0.095901     0.011826     1.082027
	   14 B(1,4,2)        =    109.460532    -0.000263    -0.611302   108.849230
	   15 B(1,4,3)        =    109.508689    -0.000184    -0.503803   109.004886
	   16 B(1,4,7)        =    109.458399     0.000158     0.357461   109.815860
	   17 B(2,4,3)        =    109.447856    -0.000246    -0.562046   108.885809
	   18 B(2,4,7)        =    109.468670     0.000415     1.030578   110.499249
	   19 B(3,4,7)        =    109.483171     0.000121     0.272018   109.755189
	   20 B(4,7,5)        =    109.431343    -0.000107    -0.101876   109.329467
	   21 B(4,7,6)        =    109.528316    -0.000129    -0.182178   109.346139
	   22 B(4,7,10)       =    109.501062     0.000642     1.394327   110.895390
	   23 B(5,7,6)        =    109.469614     0.000008    -0.244614   109.225000
	   24 B(5,7,10)       =    109.437654    -0.000200    -0.421940   109.015714
	   25 B(6,7,10)       =    109.459295    -0.000213    -0.454299   109.004995
	   26 B(7,10,8)       =    109.452301    -0.000193    -0.398692   109.053609
	   27 B(7,10,9)       =    109.482155    -0.000217    -0.470226   109.011930
	   28 B(7,10,14)      =    109.504437     0.000637     1.382947   110.887383
	   29 B(8,10,9)       =    109.458846     0.000011    -0.233175   109.225672
	   30 B(8,10,14)      =    109.478806    -0.000127    -0.167410   109.311396
	   31 B(9,10,14)      =    109.450772    -0.000110    -0.123740   109.327032
	   32 B(10,14,11)     =    109.488965     0.000412     1.014722   110.503686
	   33 B(10,14,12)     =    109.503926     0.000131     0.299066   109.802991
	   34 B(10,14,13)     =    109.524173     0.000112     0.253735   109.777908
	   35 B(11,14,12)     =    109.458432    -0.000249    -0.579482   108.878950
	   36 B(11,14,13)     =    109.438058    -0.000242    -0.564090   108.873968
	   37 B(12,14,13)     =    109.413709    -0.000165    -0.441517   108.972193
	   38 D(1,4,7,5)      =   -169.991041     0.000004     0.015064  -169.975977
	   39 D(1,4,7,6)      =    -49.982489    -0.000027    -0.456370   -50.438858
	   40 D(1,4,7,10)     =     70.056219    -0.000015    -0.264901    69.791318
	   41 D(2,4,7,5)      =    -50.013540     0.000010     0.126785   -49.886754
	   42 D(2,4,7,6)      =     69.995012    -0.000021    -0.344648    69.650364
	   43 D(2,4,7,10)     =   -169.966280    -0.000008    -0.153180  -170.119460
	   44 D(3,4,7,5)      =     69.963600     0.000016     0.245394    70.208994
	   45 D(3,4,7,6)      =   -170.027848    -0.000014    -0.226040  -170.253888
	   46 D(3,4,7,10)     =    -49.989141    -0.000002    -0.034571   -50.023712
	   47 D(4,7,10,8)     =    -60.009777     0.000031     0.469025   -59.540752
	   48 D(4,7,10,9)     =     59.970178    -0.000024    -0.335942    59.634236
	   49 D(4,7,10,14)    =    179.972182     0.000004     0.070805   180.042987
	   50 D(5,7,10,8)     =   -179.958653    -0.000001    -0.001300  -179.959952
	   51 D(5,7,10,9)     =    -59.978698    -0.000055    -0.806266   -60.784964
	   52 D(5,7,10,14)    =     60.023306    -0.000027    -0.399519    59.623787
	   53 D(6,7,10,8)     =     60.071149     0.000055     0.821040    60.892189
	   54 D(6,7,10,9)     =   -179.948896     0.000000     0.016073  -179.932823
	   55 D(6,7,10,14)    =    -59.946893     0.000028     0.422820   -59.524072
	   56 D(7,10,14,11)   =    179.989448     0.000002     0.025041   180.014489
	   57 D(7,10,14,12)   =     59.974196    -0.000005    -0.080379    59.893817
	   58 D(7,10,14,13)   =    -60.007849     0.000008     0.120750   -59.887099
	   59 D(8,10,14,11)   =     59.987626    -0.000016    -0.236168    59.751458
	   60 D(8,10,14,12)   =    -60.027626    -0.000022    -0.341588   -60.369214
	   61 D(8,10,14,13)   =    179.990329    -0.000010    -0.140459   179.849870
	   62 D(9,10,14,11)   =    -59.989345     0.000015     0.225238   -59.764107
	   63 D(9,10,14,12)   =    179.995403     0.000008     0.119818   180.115221
	   64 D(9,10,14,13)   =     60.013359     0.000020     0.320947    60.334306
	 ---------------------------------------------------------------------------
	Successfully symmetrized geometry.
	 Forces used to impose fixed constraints are not included.
	  Forces zeroed: 46 

  ==> Convergence Check <==

  Measures of convergence in internal coordinates in au.
  Criteria marked as inactive (o), active & met (*), and active & unmet ( ).
  --------------------------------------------------------------------------------------------- ~
   Step     Total Energy     Delta E     MAX Force     RMS Force      MAX Disp      RMS Disp    ~
  --------------------------------------------------------------------------------------------- ~
    Convergence Criteria    1.00e-06 *    3.00e-04 *             o    1.20e-03 *             o  ~
  --------------------------------------------------------------------------------------------- ~
      1    -158.15651813   -1.58e+02      1.32e-02      5.62e-03 o    2.51e-02      1.25e-02 o  ~
  ---------------------------------------------------------------------------------------------

	Writing optimization data to binary file.
	Structure for next step:
	Cartesian Geometry (in Angstrom)
	    H    -2.3561665844   0.2058259007   0.4124563985
	    H    -2.1421974331   1.7101891628  -0.4760273270
	    H    -1.9070813197   0.1669364513  -1.2902612954
	    C    -1.7768951264   0.6982479280  -0.3569959320
	    H     0.2528468268   1.3478511184  -0.6460565198
	    H    -0.1898217124   1.0828285712   1.0425791871
	    C    -0.2935026076   0.7050702952   0.0331351161
	    H    -0.2518377493  -1.3484345954   0.6446954253
	    H     0.1919879520  -1.0823545471  -1.0434229974
	    C     0.2945362040  -0.7049556342  -0.0337625586
	    H     2.1861168790  -1.6985544075   0.3073857241
	    H     1.8875062969  -0.3239651558   1.3661118528
	    H     2.3300844963  -0.0590820365  -0.3180484993
	    C     1.7763165271  -0.6980889317   0.3570758362
			--------------------------
			 OPTKING Finished Execution 
			--------------------------

    Structure for next step:
    Molecular point group: c1
    Full point group: C1

    Geometry (in Angstrom), charge = 0, multiplicity = 1:

    H           -2.356285542318     0.205747832685     0.412579734011
    H           -2.142316390982     1.710111094721    -0.475903991485
    H           -1.907200277553     0.166858383250    -1.290137959866
    C           -1.777014084279     0.698169859908    -0.356872596489
    H            0.252727868942     1.347773050297    -0.645933184277
    H           -0.189940670249     1.082750503095     1.042702522619
    C           -0.293621565507     0.704992227154     0.033258451647
    H           -0.251956707232    -1.348512663482     0.644818760853
    H            0.191868994125    -1.082432615202    -1.043299661873
    C            0.294417246080    -0.705033702250    -0.033639223080
    H            2.185997921084    -1.698632475584     0.307509059672
    H            1.887387339012    -0.324043223815     1.366235188373
    H            2.329965538437    -0.059160104607    -0.317925163808
    C            1.776197569168    -0.698166999742     0.357199171776

gradient() will perform analytic gradient computation.

*** tstart() called on gpu-1-17.local
*** at Wed Jun 14 14:28:43 2017

    SCF Algorithm Type (re)set to DF.

*** tstart() called on gpu-1-17.local
*** at Wed Jun 14 14:28:43 2017

   => Loading Basis Set <=

    Name: AUG-CC-PVTZ
    Role: ORBITAL
    Keyword: BASIS
    atoms 1-3, 5-6, 8-9, 11-13 entry H          line    34 file /cbio/jclab/home/chayas/anaconda/envs/py35/share/psi4/basis/aug-cc-pvtz.gbs 
    atoms 4, 7, 10, 14         entry C          line   221 file /cbio/jclab/home/chayas/anaconda/envs/py35/share/psi4/basis/aug-cc-pvtz.gbs 


         ---------------------------------------------------------
                                   SCF
            by Justin Turney, Rob Parrish, and Andy Simmonett
                              RHF Reference
                        1 Threads,   4768 MiB Core
         ---------------------------------------------------------

  ==> Geometry <==

    Molecular point group: c1
    Full point group: C1

    Geometry (in Angstrom), charge = 0, multiplicity = 1:

       Center              X                  Y                   Z               Mass       
    ------------   -----------------  -----------------  -----------------  -----------------
           H         -2.356285542318     0.205747832685     0.412579734011     1.007825032070
           H         -2.142316390982     1.710111094721    -0.475903991485     1.007825032070
           H         -1.907200277553     0.166858383250    -1.290137959866     1.007825032070
           C         -1.777014084279     0.698169859908    -0.356872596489    12.000000000000
           H          0.252727868942     1.347773050297    -0.645933184277     1.007825032070
           H         -0.189940670249     1.082750503095     1.042702522619     1.007825032070
           C         -0.293621565507     0.704992227154     0.033258451647    12.000000000000
           H         -0.251956707232    -1.348512663482     0.644818760853     1.007825032070
           H          0.191868994125    -1.082432615202    -1.043299661873     1.007825032070
           C          0.294417246080    -0.705033702250    -0.033639223080    12.000000000000
           H          2.185997921084    -1.698632475584     0.307509059672     1.007825032070
           H          1.887387339012    -0.324043223815     1.366235188373     1.007825032070
           H          2.329965538437    -0.059160104607    -0.317925163808     1.007825032070
           C          1.776197569168    -0.698166999742     0.357199171776    12.000000000000

  Running in c1 symmetry.

  Rotational constants: A =      0.77654  B =      0.12367  C =      0.11587 [cm^-1]
  Rotational constants: A =  23280.08807  B =   3707.42612  C =   3473.70600 [MHz]
  Nuclear repulsion =  131.461924219387924

  Charge       = 0
  Multiplicity = 1
  Electrons    = 34
  Nalpha       = 17
  Nbeta        = 17

  ==> Algorithm <==

  SCF Algorithm Type is DF.
  DIIS enabled.
  MOM disabled.
  Fractional occupation disabled.
  Guess Type is READ.
  Energy threshold   = 1.00e-10
  Density threshold  = 1.00e-10
  Integral threshold = 0.00e+00

  ==> Primary Basis <==

  Basis Set: AUG-CC-PVTZ
    Blend: AUG-CC-PVTZ
    Number of shells: 146
    Number of basis function: 414
    Number of Cartesian functions: 470
    Spherical Harmonics?: true
    Max angular momentum: 3

   => Loading Basis Set <=

    Name: (AUG-CC-PVTZ AUX)
    Role: JKFIT
    Keyword: DF_BASIS_SCF
    atoms 1-3, 5-6, 8-9, 11-13 entry H          line    69 file /cbio/jclab/home/chayas/anaconda/envs/py35/share/psi4/basis/aug-cc-pvtz-jkfit.gbs 
    atoms 4, 7, 10, 14         entry C          line   161 file /cbio/jclab/home/chayas/anaconda/envs/py35/share/psi4/basis/aug-cc-pvtz-jkfit.gbs 

  Reading orbitals from file 180, no projection.

  ==> Pre-Iterations <==

   -------------------------------------------------------
    Irrep   Nso     Nmo     Nalpha   Nbeta   Ndocc  Nsocc
   -------------------------------------------------------
     A        414     414       0       0       0       0
   -------------------------------------------------------
    Total     414     414      17      17      17       0
   -------------------------------------------------------

  ==> Integral Setup <==

  ==> DFJK: Density-Fitted J/K Matrices <==

    J tasked:                  Yes
    K tasked:                  Yes
    wK tasked:                  No
    OpenMP threads:              1
    Integrals threads:           1
    Memory (MB):              3576
    Algorithm:                Core
    Integral Cache:           NONE
    Schwarz Cutoff:          1E-12
    Fitting Condition:       1E-12

   => Auxiliary Basis Set <=

  Basis Set: (AUG-CC-PVTZ AUX)
    Blend: AUG-CC-PVTZ-JKFIT
    Number of shells: 260
    Number of basis function: 876
    Number of Cartesian functions: 1074
    Spherical Harmonics?: true
    Max angular momentum: 4

  Minimum eigenvalue in the overlap matrix is 8.2303447978E-06.
  Using Symmetric Orthogonalization.

  SCF Guess: Orbitals guess was supplied from a previous computation.

  ==> Iterations <==

                           Total Energy        Delta E     RMS |[F,P]|

   @DF-RHF iter   0:  -157.27791174708702   -1.57278e+02   1.25804e-04 
   @DF-RHF iter   1:  -157.35474785864579   -7.68361e-02   5.19590e-05 
   @DF-RHF iter   2:  -157.35502379299075   -2.75934e-04   2.68878e-05 DIIS
   @DF-RHF iter   3:  -157.35508230965186   -5.85167e-05   2.87947e-06 DIIS
   @DF-RHF iter   4:  -157.35508376479578   -1.45514e-06   7.70969e-07 DIIS
   @DF-RHF iter   5:  -157.35508385256082   -8.77650e-08   2.56100e-07 DIIS
   @DF-RHF iter   6:  -157.35508386246190   -9.90107e-09   4.16084e-08 DIIS
   @DF-RHF iter   7:  -157.35508386284971   -3.87814e-10   5.96224e-09 DIIS
   @DF-RHF iter   8:  -157.35508386285920   -9.49285e-12   1.01593e-09 DIIS
   @DF-RHF iter   9:  -157.35508386285881    3.97904e-13   2.29198e-10 DIIS
   @DF-RHF iter  10:  -157.35508386286091   -2.10321e-12   4.61802e-11 DIIS

  ==> Post-Iterations <==

    Orbital Energies (a.u.)
    -----------------------

    Doubly Occupied:                                                      

       1A    -11.210300     2A    -11.209687     3A    -11.203775  
       4A    -11.203755     5A     -1.071389     6A     -0.980006  
       7A     -0.859955     8A     -0.789140     9A     -0.645432  
      10A     -0.585018    11A     -0.572150    12A     -0.571897  
      13A     -0.512883    14A     -0.499738    15A     -0.470259  
      16A     -0.465421    17A     -0.449323  

    Virtual:                                                              

      18A      0.032277    19A      0.036925    20A      0.039683  
      21A      0.040910    22A      0.056576    23A      0.058485  
      24A      0.059595    25A      0.061344    26A      0.081873  
      27A      0.085009    28A      0.096701    29A      0.112291  
      30A      0.123156    31A      0.130774    32A      0.135476  
      33A      0.141680    34A      0.143759    35A      0.146784  
      36A      0.148209    37A      0.159552    38A      0.159727  
      39A      0.168188    40A      0.170545    41A      0.202303  
      42A      0.210300    43A      0.211627    44A      0.229226  
      45A      0.248360    46A      0.249608    47A      0.250489  
      48A      0.269007    49A      0.273126    50A      0.281045  
      51A      0.281913    52A      0.316238    53A      0.318583  
      54A      0.331199    55A      0.337286    56A      0.339332  
      57A      0.347451    58A      0.356870    59A      0.357411  
      60A      0.359102    61A      0.373454    62A      0.373997  
      63A      0.384237    64A      0.388195    65A      0.390281  
      66A      0.391726    67A      0.395291    68A      0.402120  
      69A      0.406681    70A      0.413621    71A      0.424145  
      72A      0.429227    73A      0.442755    74A      0.445906  
      75A      0.454030    76A      0.459756    77A      0.463699  
      78A      0.467561    79A      0.473775    80A      0.475760  
      81A      0.483594    82A      0.490025    83A      0.497823  
      84A      0.505407    85A      0.505657    86A      0.510226  
      87A      0.522475    88A      0.526260    89A      0.528383  
      90A      0.537339    91A      0.547083    92A      0.563315  
      93A      0.565155    94A      0.575025    95A      0.587125  
      96A      0.595908    97A      0.598952    98A      0.612585  
      99A      0.625061   100A      0.635120   101A      0.639484  
     102A      0.655812   103A      0.682022   104A      0.688379  
     105A      0.702638   106A      0.703412   107A      0.764083  
     108A      0.777837   109A      0.796333   110A      0.815663  
     111A      0.823064   112A      0.826891   113A      0.836682  
     114A      0.842539   115A      0.845604   116A      0.857267  
     117A      0.861574   118A      0.863784   119A      0.885236  
     120A      0.889990   121A      0.896261   122A      0.900340  
     123A      0.908046   124A      0.919586   125A      0.922060  
     126A      0.931452   127A      0.938164   128A      0.943624  
     129A      0.948974   130A      0.957970   131A      0.963884  
     132A      0.967189   133A      0.982519   134A      0.989568  
     135A      0.995440   136A      1.008080   137A      1.011412  
     138A      1.030278   139A      1.047576   140A      1.055583  
     141A      1.069652   142A      1.077783   143A      1.094671  
     144A      1.102920   145A      1.109167   146A      1.125212  
     147A      1.128922   148A      1.132178   149A      1.137427  
     150A      1.158316   151A      1.162377   152A      1.166085  
     153A      1.170350   154A      1.194418   155A      1.201243  
     156A      1.213802   157A      1.222844   158A      1.241394  
     159A      1.250632   160A      1.252642   161A      1.257349  
     162A      1.262339   163A      1.272082   164A      1.277672  
     165A      1.286119   166A      1.300993   167A      1.310025  
     168A      1.327008   169A      1.338226   170A      1.351803  
     171A      1.357861   172A      1.372370   173A      1.393307  
     174A      1.424918   175A      1.429172   176A      1.435048  
     177A      1.458904   178A      1.482767   179A      1.494465  
     180A      1.499373   181A      1.526624   182A      1.531092  
     183A      1.549144   184A      1.556805   185A      1.573937  
     186A      1.583586   187A      1.594690   188A      1.613828  
     189A      1.625991   190A      1.633443   191A      1.641407  
     192A      1.643465   193A      1.681588   194A      1.685536  
     195A      1.698954   196A      1.699826   197A      1.708172  
     198A      1.711153   199A      1.733900   200A      1.741073  
     201A      1.747897   202A      1.758597   203A      1.760307  
     204A      1.774831   205A      1.780326   206A      1.785396  
     207A      1.791702   208A      1.797580   209A      1.826172  
     210A      1.847641   211A      1.858895   212A      1.867938  
     213A      1.885020   214A      1.894612   215A      1.917134  
     216A      1.920747   217A      1.959474   218A      1.970494  
     219A      1.973880   220A      1.981345   221A      1.988138  
     222A      1.992151   223A      2.026896   224A      2.043315  
     225A      2.054534   226A      2.065673   227A      2.093835  
     228A      2.100585   229A      2.138965   230A      2.146282  
     231A      2.155283   232A      2.177592   233A      2.188878  
     234A      2.209389   235A      2.241421   236A      2.251447  
     237A      2.254536   238A      2.285158   239A      2.299763  
     240A      2.311473   241A      2.324131   242A      2.327418  
     243A      2.331872   244A      2.342414   245A      2.373479  
     246A      2.379834   247A      2.430589   248A      2.452456  
     249A      2.472838   250A      2.474679   251A      2.506140  
     252A      2.537086   253A      2.605398   254A      2.613263  
     255A      2.651426   256A      2.677305   257A      2.701985  
     258A      2.897476   259A      2.910687   260A      3.026694  
     261A      3.240175   262A      3.253039   263A      3.267700  
     264A      3.388734   265A      3.409068   266A      3.426560  
     267A      3.456022   268A      3.465407   269A      3.474828  
     270A      3.482256   271A      3.516479   272A      3.533372  
     273A      3.571734   274A      3.579803   275A      3.593886  
     276A      3.602690   277A      3.632628   278A      3.658048  
     279A      3.684591   280A      3.684917   281A      3.717846  
     282A      3.723368   283A      3.729980   284A      3.739419  
     285A      3.749879   286A      3.761192   287A      3.789852  
     288A      3.792010   289A      3.809318   290A      3.816102  
     291A      3.847064   292A      3.856668   293A      3.878666  
     294A      3.886692   295A      3.911810   296A      3.916821  
     297A      3.927189   298A      3.939137   299A      3.964393  
     300A      3.991942   301A      3.997977   302A      4.001368  
     303A      4.014423   304A      4.019011   305A      4.040059  
     306A      4.049524   307A      4.057762   308A      4.063570  
     309A      4.133628   310A      4.179362   311A      4.201628  
     312A      4.210978   313A      4.219044   314A      4.231779  
     315A      4.239812   316A      4.260931   317A      4.269199  
     318A      4.280071   319A      4.293150   320A      4.311711  
     321A      4.340230   322A      4.359613   323A      4.361064  
     324A      4.397815   325A      4.411709   326A      4.418598  
     327A      4.525595   328A      4.535729   329A      4.564781  
     330A      4.580352   331A      4.624522   332A      4.647725  
     333A      4.672165   334A      4.691742   335A      4.710328  
     336A      4.724258   337A      4.725641   338A      4.744145  
     339A      4.757069   340A      4.781222   341A      4.790589  
     342A      4.835023   343A      4.854493   344A      4.867672  
     345A      4.873053   346A      4.887839   347A      4.910002  
     348A      4.938059   349A      4.951723   350A      4.991780  
     351A      5.031655   352A      5.046459   353A      5.051903  
     354A      5.077957   355A      5.111955   356A      5.163686  
     357A      5.177766   358A      5.192587   359A      5.201958  
     360A      5.220974   361A      5.235166   362A      5.243884  
     363A      5.248634   364A      5.273875   365A      5.292869  
     366A      5.342517   367A      5.383664   368A      5.395348  
     369A      5.412215   370A      5.419887   371A      5.436627  
     372A      5.451868   373A      5.462549   374A      5.479644  
     375A      5.546277   376A      5.568118   377A      5.595340  
     378A      5.609190   379A      5.657508   380A      5.674586  
     381A      5.696087   382A      5.731103   383A      5.732754  
     384A      5.759678   385A      5.817255   386A      5.826874  
     387A      5.864688   388A      5.890425   389A      5.914150  
     390A      6.002066   391A      6.049336   392A      6.111493  
     393A      6.130652   394A      6.150892   395A      6.219154  
     396A      6.223365   397A      6.238179   398A      6.257312  
     399A      6.272867   400A      6.328681   401A      6.384115  
     402A      6.388324   403A      6.544358   404A      6.550998  
     405A      6.739867   406A      6.778395   407A      6.821846  
     408A      6.836905   409A      6.858265   410A      6.987642  
     411A     17.928865   412A     18.191914   413A     18.258000  
     414A     18.847285  

    Final Occupation by Irrep:
              A 
    DOCC [    17 ]

  Energy converged.

  @DF-RHF Final Energy:  -157.35508386286091

   => Energetics <=

    Nuclear Repulsion Energy =            131.4619242193879245
    One-Electron Energy =                -471.0337628604821703
    Two-Electron Energy =                 182.2167547782333372
    DFT Exchange-Correlation Energy =       0.0000000000000000
    Empirical Dispersion Energy =           0.0000000000000000
    PCM Polarization Energy =               0.0000000000000000
    EFP Energy =                            0.0000000000000000
    Total Energy =                       -157.3550838628609085



Properties will be evaluated at   0.000000,   0.000000,   0.000000 Bohr

Properties computed using the SCF density matrix

  Nuclear Dipole Moment: (a.u.)
     X:     0.0002      Y:     0.0004      Z:     0.0006

  Electronic Dipole Moment: (a.u.)
     X:    -0.0003      Y:    -0.0008      Z:     0.0002

  Dipole Moment: (a.u.)
     X:    -0.0001      Y:    -0.0003      Z:     0.0008     Total:     0.0009

  Dipole Moment: (Debye)
     X:    -0.0002      Y:    -0.0009      Z:     0.0021     Total:     0.0023


*** tstop() called on gpu-1-17.local at Wed Jun 14 14:30:09 2017
Module time:
	user time   =      85.14 seconds =       1.42 minutes
	system time =       0.66 seconds =       0.01 minutes
	total time  =         86 seconds =       1.43 minutes
Total time:
	user time   =     543.33 seconds =       9.06 minutes
	system time =       5.40 seconds =       0.09 minutes
	total time  =        550 seconds =       9.17 minutes

  //>>>>>>>>>>>>>>>>>>>>>>>>>>>>>>>>>>>//
  //               DFMP2               //
  //<<<<<<<<<<<<<<<<<<<<<<<<<<<<<<<<<<<//

   => Loading Basis Set <=

    Name: (AUG-CC-PVTZ AUX)
    Role: RIFIT
    Keyword: DF_BASIS_MP2
    atoms 1-3, 5-6, 8-9, 11-13 entry H          line    29 file /cbio/jclab/home/chayas/anaconda/envs/py35/share/psi4/basis/aug-cc-pvtz-ri.gbs 
    atoms 4, 7, 10, 14         entry C          line   147 file /cbio/jclab/home/chayas/anaconda/envs/py35/share/psi4/basis/aug-cc-pvtz-ri.gbs 

	 --------------------------------------------------------
	                          DF-MP2                         
	      2nd-Order Density-Fitted Moller-Plesset Theory     
	              RMP2 Wavefunction,   1 Threads             
	                                                         
	        Rob Parrish, Justin Turney, Andy Simmonett,      
	           Ed Hohenstein, and C. David Sherrill          
	 --------------------------------------------------------

   => Auxiliary Basis Set <=

  Basis Set: (AUG-CC-PVTZ AUX)
    Blend: AUG-CC-PVTZ-RI
    Number of shells: 252
    Number of basis function: 884
    Number of Cartesian functions: 1094
    Spherical Harmonics?: true
    Max angular momentum: 4

	 --------------------------------------------------------
	                 NBF =   414, NAUX =   884
	 --------------------------------------------------------
	   CLASS    FOCC     OCC    AOCC    AVIR     VIR    FVIR
	   PAIRS       0      17      17     397     397       0
	 --------------------------------------------------------


         ------------------------------------------------------------
                                     CPHF                           
                                  Rob Parrish                       
         ------------------------------------------------------------

  ==> Geometry <==

    Molecular point group: c1
    Full point group: C1

    Geometry (in Angstrom), charge = 0, multiplicity = 1:

       Center              X                  Y                   Z               Mass       
    ------------   -----------------  -----------------  -----------------  -----------------
           H         -2.356285542318     0.205747832685     0.412579734011     1.007825032070
           H         -2.142316390982     1.710111094721    -0.475903991485     1.007825032070
           H         -1.907200277553     0.166858383250    -1.290137959866     1.007825032070
           C         -1.777014084279     0.698169859908    -0.356872596489    12.000000000000
           H          0.252727868942     1.347773050297    -0.645933184277     1.007825032070
           H         -0.189940670249     1.082750503095     1.042702522619     1.007825032070
           C         -0.293621565507     0.704992227154     0.033258451647    12.000000000000
           H         -0.251956707232    -1.348512663482     0.644818760853     1.007825032070
           H          0.191868994125    -1.082432615202    -1.043299661873     1.007825032070
           C          0.294417246080    -0.705033702250    -0.033639223080    12.000000000000
           H          2.185997921084    -1.698632475584     0.307509059672     1.007825032070
           H          1.887387339012    -0.324043223815     1.366235188373     1.007825032070
           H          2.329965538437    -0.059160104607    -0.317925163808     1.007825032070
           C          1.776197569168    -0.698166999742     0.357199171776    12.000000000000

  Nuclear repulsion =  131.461924219387924
  Reference energy  = -157.355083862860909

  ==> Basis Set <==

  Basis Set: AUG-CC-PVTZ
    Blend: AUG-CC-PVTZ
    Number of shells: 146
    Number of basis function: 414
    Number of Cartesian functions: 470
    Spherical Harmonics?: true
    Max angular momentum: 3

  ==> CGRSolver (by Rob Parrish) <==

   Number of roots    =         1
   Preconditioning    =    JACOBI
   Convergence cutoff =     1E-06
   Maximum iterations =       100

  ==> CPHFRHamiltonian (by Rob Parrish) <== 

  ==> DFJK: Density-Fitted J/K Matrices <==

    J tasked:                  Yes
    K tasked:                  Yes
    wK tasked:                  No
    OpenMP threads:              1
    Integrals threads:           1
    Memory (MB):              3576
    Algorithm:                Core
    Integral Cache:           NONE
    Schwarz Cutoff:          1E-12
    Fitting Condition:       1E-12

   => Auxiliary Basis Set <=

  Basis Set: (AUG-CC-PVTZ AUX)
    Blend: AUG-CC-PVTZ-JKFIT
    Number of shells: 260
    Number of basis function: 876
    Number of Cartesian functions: 1074
    Spherical Harmonics?: true
    Max angular momentum: 4

  ==> CPHF Iterations <==

  => Iterations <=

             Iter  Converged  Remaining    Residual
  CGR           1          0          1   8.306E-02
  CGR           2          0          1   1.322E-02
  CGR           3          0          1   3.487E-03
  CGR           4          0          1   8.136E-04
  CGR           5          0          1   1.197E-04
  CGR           6          0          1   2.163E-05
  CGR           7          0          1   3.710E-06
  CGR           8          1          0   8.226E-07

    CGRSolver converged.

  ==> DFCorrGrad: Density-Fitted Correlated Gradients <==

    OpenMP threads:              1
    Integrals threads:           1
    Memory (MB):              3576
    Schwarz Cutoff:          0E+00
    Fitting Condition:       1E-12

   => Auxiliary Basis Set <=

  Basis Set: (AUG-CC-PVTZ AUX)
    Blend: AUG-CC-PVTZ-JKFIT
    Number of shells: 260
    Number of basis function: 876
    Number of Cartesian functions: 1074
    Spherical Harmonics?: true
    Max angular momentum: 4

	-----------------------------------------------------------
	 ==================> DF-MP2 Energies <==================== 
	-----------------------------------------------------------
	 Reference Energy          =    -157.3550838628609085 [Eh]
	 Singles Energy            =      -0.0000000000000000 [Eh]
	 Same-Spin Energy          =      -0.1653422524920265 [Eh]
	 Opposite-Spin Energy      =      -0.6391339178589184 [Eh]
	 Correlation Energy        =      -0.8044761703509449 [Eh]
	 Total Energy              =    -158.1595600332118465 [Eh]
	-----------------------------------------------------------
	 ================> DF-SCS-MP2 Energies <================== 
	-----------------------------------------------------------
	 SCS Same-Spin Scale       =       0.3333333333333333 [-]
	 SCS Opposite-Spin Scale   =       1.2000000000000000 [-]
	 SCS Same-Spin Energy      =      -0.0551140841640088 [Eh]
	 SCS Opposite-Spin Energy  =      -0.7669607014307021 [Eh]
	 SCS Correlation Energy    =      -0.8220747855947109 [Eh]
	 SCS Total Energy          =    -158.1771586484556167 [Eh]
	-----------------------------------------------------------


  -Total Gradient:
     Atom            X                  Y                   Z
    ------   -----------------  -----------------  -----------------
       1        0.003475277666     0.002181566063    -0.001234325737
       2        0.003366552177    -0.002231557678     0.000346092791
       3        0.002178906042     0.001397596007     0.003410222722
       4       -0.013388039394    -0.003640243661    -0.004359404487
       5       -0.003443385272    -0.003516091549     0.000565905138
       6       -0.002542060318    -0.003858279501    -0.002903222580
       7        0.012367422897     0.015606419245     0.006402303478
       8        0.003433047863     0.004056879379    -0.000344256517
       9        0.002425773994     0.003275184630     0.003149116596
      10       -0.012310567499    -0.015629303895    -0.006453603261
      11       -0.003335032934     0.002353487371    -0.000514526046
      12       -0.002161943690    -0.001354388380    -0.003308810222
      13       -0.003286688319    -0.002065324380     0.001277925450
      14        0.013220736789     0.003424056346     0.003966582674


*** tstop() called on gpu-1-17.local at Wed Jun 14 14:36:01 2017
Module time:
	user time   =     433.39 seconds =       7.22 minutes
	system time =       4.56 seconds =       0.08 minutes
	total time  =        438 seconds =       7.30 minutes
Total time:
	user time   =     891.58 seconds =      14.86 minutes
	system time =       9.30 seconds =       0.15 minutes
	total time  =        902 seconds =      15.03 minutes

			-----------------------------------------
			 OPTKING 2.0: for geometry optimizations 
			  - R.A. King,  Bethel University        
			-----------------------------------------

	Previous internal coordinate definitions found.
	---Fragment 1 Geometry and Gradient---
	 H          -4.4527343659        0.3888070562        0.7796627053
	 H          -4.0483912689        3.2316416258       -0.8993282095
	 H          -3.6040862051        0.3153166473       -2.4380074178
	 C          -3.3580699536        1.3193498295       -0.6743914717
	 H           0.4775864584        2.5469219543       -1.2206368184
	 H          -0.3589358483        2.0461019211        1.9704222058
	 C          -0.5548643455        1.3322422351        0.0628493652
	 H          -0.4761291740       -2.5483196207        1.2185308634
	 H           0.3625798523       -2.0455012000       -1.9715506355
	 C           0.5563679639       -1.3323206117       -0.0635689189
	 H           4.1309373979       -3.2099501793        0.5811079062
	 H           3.5666451774       -0.6123529482        2.5818103391
	 H           4.4029967667       -0.1117963957       -0.6007914903
	 C           3.3565269636       -1.3193444245        0.6750086096
	             0.0034752777        0.0021815661       -0.0012343257
	             0.0033665522       -0.0022315577        0.0003460928
	             0.0021789060        0.0013975960        0.0034102227
	            -0.0133880394       -0.0036402437       -0.0043594045
	            -0.0034433853       -0.0035160915        0.0005659051
	            -0.0025420603       -0.0038582795       -0.0029032226
	             0.0123674229        0.0156064192        0.0064023035
	             0.0034330479        0.0040568794       -0.0003442565
	             0.0024257740        0.0032751846        0.0031491166
	            -0.0123105675       -0.0156293039       -0.0064536033
	            -0.0033350329        0.0023534874       -0.0005145260
	            -0.0021619437       -0.0013543884       -0.0033088102
	            -0.0032866883       -0.0020653244        0.0012779255
	             0.0132207368        0.0034240563        0.0039665827

	---Fragment 1 Intrafragment Coordinates---
	 - Coordinate -           - BOHR/RAD -       - ANG/DEG -
	 R(1,4)           =         2.044131	       1.081708
	 R(2,4)           =         2.045483	       1.082423
	 R(3,4)           =         2.044247	       1.081769
	 R(4,7)           =         2.898560	       1.533852
	 R(5,7)           =         2.046641	       1.083036
	 R(6,7)           =         2.046171	       1.082787
	 R(7,10)          =         2.889760	       1.529195
	 R(8,10)          =         2.046579	       1.083003
	 R(9,10)          =         2.046112	       1.082756
	 R(10,14)         =         2.895955	       1.532473
	 R(11,14)         =         2.045219	       1.082283
	 R(12,14)         =         2.044475	       1.081890
	 R(13,14)         =         2.044734	       1.082027
	 B(1,4,2)         =         1.899777	     108.849230
	 B(1,4,3)         =         1.902494	     109.004886
	 B(1,4,7)         =         1.916648	     109.815860
	 B(2,4,3)         =         1.900416	     108.885809
	 B(2,4,7)         =         1.928576	     110.499249
	 B(3,4,7)         =         1.915589	     109.755189
	 B(4,7,5)         =         1.908159	     109.329467
	 B(4,7,6)         =         1.908450	     109.346139
	 B(4,7,10)        =         1.935490	     110.895390
	 B(5,7,6)         =         1.906336	     109.225000
	 B(5,7,10)        =         1.902683	     109.015714
	 B(6,7,10)        =         1.902496	     109.004995
	 B(7,10,8)        =         1.903345	     109.053609
	 B(7,10,9)        =         1.902617	     109.011930
	 B(7,10,14)       =         1.935350	     110.887383
	 B(8,10,9)        =         1.906348	     109.225672
	 B(8,10,14)       =         1.907844	     109.311396
	 B(9,10,14)       =         1.908117	     109.327032
	 B(10,14,11)      =         1.928653	     110.503686
	 B(10,14,12)      =         1.916424	     109.802991
	 B(10,14,13)      =         1.915986	     109.777908
	 B(11,14,12)      =         1.900296	     108.878950
	 B(11,14,13)      =         1.900209	     108.873968
	 B(12,14,13)      =         1.901924	     108.972193
	 D(1,4,7,5)       =        -2.966640	    -169.975977
	 D(1,4,7,6)       =        -0.880324	     -50.438858
	 D(1,4,7,10)      =         1.218088	      69.791318
	 D(2,4,7,5)       =        -0.870688	     -49.886754
	 D(2,4,7,6)       =         1.215628	      69.650364
	 D(2,4,7,10)      =        -2.969145	    -170.119460
	 D(3,4,7,5)       =         1.225378	      70.208994
	 D(3,4,7,6)       =        -2.971491	    -170.253888
	 D(3,4,7,10)      =        -0.873078	     -50.023712
	 D(4,7,10,8)      =        -1.039182	     -59.540752
	 D(4,7,10,9)      =         1.040814	      59.634236
	 D(4,7,10,14)     =        -3.140842	    -179.957013
	 D(5,7,10,8)      =        -3.140894	    -179.959952
	 D(5,7,10,9)      =        -1.060898	     -60.784964
	 D(5,7,10,14)     =         1.040631	      59.623787
	 D(6,7,10,8)      =         1.062769	      60.892189
	 D(6,7,10,9)      =        -3.140420	    -179.932823
	 D(6,7,10,14)     =        -1.038891	     -59.524072
	 D(7,10,14,11)    =        -3.141340	    -179.985511
	 D(7,10,14,12)    =         1.045344	      59.893817
	 D(7,10,14,13)    =        -1.045227	     -59.887099
	 D(8,10,14,11)    =         1.042860	      59.751458
	 D(8,10,14,12)    =        -1.053642	     -60.369214
	 D(8,10,14,13)    =         3.138972	     179.849870
	 D(9,10,14,11)    =        -1.043080	     -59.764107
	 D(9,10,14,12)    =        -3.139582	    -179.884779
	 D(9,10,14,13)    =         1.053032	      60.334306

	Current energy   :      -158.1595600332

	Energy change for the previous step:
		Projected    :        -0.0046003596
		Actual       :        -0.0030418989

	Performing BFGS update.
	Previous computed or guess Hessian on step 1.
	Steps to be used in Hessian update: 1
	Adding user-defined constraint: Fragment 1; Coordinate 46:
		Value =    -0.873078; Fixed value    =    -0.872660
		Force =     0.000220; Force constant =     0.525000
	Removing off-diagonal coupling between coordinate 46 and others.
	Taking RFO optimization step.
	Going to follow RFO solution 1.
	Using RFO vector 1.

	Determining step-restricting scale parameter for RS-RFO.
	Maximum step size allowed    0.10000

	 Iter      |step|        alpha        rfo_root  
	------------------------------------------------
	    0     0.16127       1.00000           1
	    1     0.13254       6.30209           1
	    2     0.11039      16.08479           1
	    3     0.10154      22.58669           1
	    4     0.10004      23.91362           1
	    5     0.10000      23.95248           1
	------------------------------------------------
	Norm of target step-size    0.10000
	Projected energy change by RFO approximation:        -0.0015674295

	Back-transformation to cartesian coordinates...
	Successfully converged to displaced geometry.

	--- Internal Coordinate Step in ANG or DEG, aJ/ANG or AJ/DEG ---
	 ---------------------------------------------------------------------------
	   Coordinate                Previous        Force       Change         New 
	   ----------                --------       ------       ------       ------
	    1 R(1,4)          =      1.081708     0.030748     0.005717     1.087425
	    2 R(2,4)          =      1.082423     0.026862     0.004793     1.087216
	    3 R(3,4)          =      1.081769     0.032055     0.006008     1.087777
	    4 R(4,7)          =      1.533852    -0.038732    -0.010593     1.523259
	    5 R(5,7)          =      1.083036     0.034427     0.006504     1.089540
	    6 R(6,7)          =      1.082787     0.035394     0.006683     1.089470
	    7 R(7,10)         =      1.529195    -0.039540    -0.009886     1.519310
	    8 R(8,10)         =      1.083003     0.035905     0.006764     1.089767
	    9 R(9,10)         =      1.082756     0.035491     0.006695     1.089451
	   10 R(10,14)        =      1.532473    -0.038420    -0.010432     1.522042
	   11 R(11,14)        =      1.082283     0.028133     0.005008     1.087291
	   12 R(12,14)        =      1.081890     0.031114     0.005804     1.087694
	   13 R(13,14)        =      1.082027     0.030476     0.005701     1.087728
	   14 B(1,4,2)        =    108.849230    -0.000160    -0.680587   108.168643
	   15 B(1,4,3)        =    109.004886    -0.000160    -0.930960   108.073926
	   16 B(1,4,7)        =    109.815860     0.000133     0.595953   110.411812
	   17 B(2,4,3)        =    108.885809    -0.000149    -0.564472   108.321338
	   18 B(2,4,7)        =    110.499249     0.000207     0.930294   111.429542
	   19 B(3,4,7)        =    109.755189     0.000118     0.577035   110.332224
	   20 B(4,7,5)        =    109.329467    -0.000017     0.173202   109.502669
	   21 B(4,7,6)        =    109.346139    -0.000032     0.109083   109.455222
	   22 B(4,7,10)       =    110.895390     0.000269     1.123176   112.018566
	   23 B(5,7,6)        =    109.225000    -0.000080    -1.176385   108.048615
	   24 B(5,7,10)       =    109.015714    -0.000072    -0.198402   108.817312
	   25 B(6,7,10)       =    109.004995    -0.000072    -0.093075   108.911921
	   26 B(7,10,8)       =    109.053609    -0.000065    -0.105960   108.947649
	   27 B(7,10,9)       =    109.011930    -0.000078    -0.185376   108.826553
	   28 B(7,10,14)      =    110.887383     0.000266     1.112886   112.000269
	   29 B(8,10,9)       =    109.225672    -0.000078    -1.159308   108.066364
	   30 B(8,10,14)      =    109.311396    -0.000029     0.125276   109.436672
	   31 B(9,10,14)      =    109.327032    -0.000021     0.151505   109.478537
	   32 B(10,14,11)     =    110.503686     0.000202     0.858854   111.362540
	   33 B(10,14,12)     =    109.802991     0.000122     0.596170   110.399161
	   34 B(10,14,13)     =    109.777908     0.000115     0.572855   110.350762
	   35 B(11,14,12)     =    108.878950    -0.000153    -0.666173   108.212776
	   36 B(11,14,13)     =    108.873968    -0.000150    -0.653892   108.220076
	   37 B(12,14,13)     =    108.972193    -0.000145    -0.775509   108.196684
	   38 D(1,4,7,5)      =   -169.975977     0.000005     0.114473  -169.861504
	   39 D(1,4,7,6)      =    -50.438858    -0.000024    -1.148410   -51.587268
	   40 D(1,4,7,10)     =     69.791318    -0.000011    -0.472230    69.319088
	   41 D(2,4,7,5)      =    -49.886754     0.000009     0.255257   -49.631497
	   42 D(2,4,7,6)      =     69.650364    -0.000020    -1.007625    68.642739
	   43 D(2,4,7,10)     =   -170.119460    -0.000006    -0.331445  -170.450905
	   44 D(3,4,7,5)      =     70.208994     0.000014     0.528542    70.737536
	   45 D(3,4,7,6)      =   -170.253888    -0.000015    -0.734341  -170.988229
	   46 D(3,4,7,10)     =    -50.023712    -0.000001    -0.058161   -50.081872
	   47 D(4,7,10,8)     =    -59.540752     0.000023     0.882915   -58.657837
[...]

  ==> CPHF Iterations <==

  => Iterations <=

             Iter  Converged  Remaining    Residual
  CGR           1          0          1   8.473E-02
  CGR           2          0          1   1.341E-02
  CGR           3          0          1   3.544E-03
  CGR           4          0          1   8.152E-04
  CGR           5          0          1   1.192E-04
  CGR           6          0          1   2.192E-05
  CGR           7          0          1   3.796E-06
  CGR           8          1          0   8.658E-07

    CGRSolver converged.

  ==> DFCorrGrad: Density-Fitted Correlated Gradients <==

    OpenMP threads:              1
    Integrals threads:           1
    Memory (MB):              3576
    Schwarz Cutoff:          0E+00
    Fitting Condition:       1E-12

   => Auxiliary Basis Set <=

  Basis Set: (AUG-CC-PVTZ AUX)
    Blend: AUG-CC-PVTZ-JKFIT
    Number of shells: 260
    Number of basis function: 876
    Number of Cartesian functions: 1074
    Spherical Harmonics?: true
    Max angular momentum: 4

	-----------------------------------------------------------
	 ==================> DF-MP2 Energies <==================== 
	-----------------------------------------------------------
	 Reference Energy          =    -157.3561041004978733 [Eh]
	 Singles Energy            =      -0.0000000000000000 [Eh]
	 Same-Spin Energy          =      -0.1654666346679587 [Eh]
	 Opposite-Spin Energy      =      -0.6392006257502592 [Eh]
	 Correlation Energy        =      -0.8046672604182179 [Eh]
	 Total Energy              =    -158.1607713609161010 [Eh]
	-----------------------------------------------------------
	 ================> DF-SCS-MP2 Energies <================== 
	-----------------------------------------------------------
	 SCS Same-Spin Scale       =       0.3333333333333333 [-]
	 SCS Opposite-Spin Scale   =       1.2000000000000000 [-]
	 SCS Same-Spin Energy      =      -0.0551555448893196 [Eh]
	 SCS Opposite-Spin Energy  =      -0.7670407509003110 [Eh]
	 SCS Correlation Energy    =      -0.8221962957896306 [Eh]
	 SCS Total Energy          =    -158.1783003962875114 [Eh]
	-----------------------------------------------------------


  -Total Gradient:
     Atom            X                  Y                   Z
    ------   -----------------  -----------------  -----------------
       1       -0.000021710002     0.000010169176     0.000013807009
       2       -0.000015386473     0.000071897489    -0.000020887103
       3       -0.000209683484    -0.001269530404     0.000693723207
       4        0.000452743875     0.001527238103    -0.001245200614
       5       -0.000012841479     0.000005662310     0.000003947090
       6       -0.000002912811    -0.000024129747     0.000054064139
       7       -0.000385087625    -0.000515364121     0.001526579082
       8       -0.000016938099    -0.000007491540     0.000032291334
       9        0.000004445569     0.000009650183    -0.000007296954
      10        0.000270315957     0.000146459129    -0.001041811397
      11        0.000012325705    -0.000046180760     0.000001107727
      12        0.000018338506     0.000018044588     0.000049677700
      13        0.000036516747     0.000026115916    -0.000024802284
      14       -0.000130126386     0.000047459678    -0.000035198933


*** tstop() called on gpu-1-17.local at Wed Jun 14 14:56:45 2017
Module time:
	user time   =     381.30 seconds =       6.35 minutes
	system time =       4.18 seconds =       0.07 minutes
	total time  =        385 seconds =       6.42 minutes
Total time:
	user time   =    2122.18 seconds =      35.37 minutes
	system time =      22.52 seconds =       0.38 minutes
	total time  =       2146 seconds =      35.77 minutes

			-----------------------------------------
			 OPTKING 2.0: for geometry optimizations 
			  - R.A. King,  Bethel University        
			-----------------------------------------

	Previous internal coordinate definitions found.
	---Fragment 1 Geometry and Gradient---
	 H          -4.4667523691        0.3584327736        0.7771058101
	 H          -4.0919406076        3.2257295605       -0.8639273553
	 H          -3.6576779640        0.3150574980       -2.4335707785
	 C          -3.3548360036        1.3185009979       -0.6630977851
	 H           0.4695621058        2.5467962716       -1.2407981463
	 H          -0.3274643157        2.0918350225        1.9322439436
	 C          -0.5744188123        1.3125206078        0.0395604586
	 H          -0.4838917663       -2.5675323780        1.1714370077
	 H           0.3756422533       -2.0513612145       -1.9769009955
	 C           0.5820151376       -1.3073080049       -0.0652665099
	 H           4.1517093703       -3.2105292762        0.5895987042
	 H           3.5817028388       -0.6318864482        2.6114166552
	 H           4.4445315309       -0.1004377115       -0.5523959843
	 C           3.3476242410       -1.3217066935        0.6876104992
	            -0.0000217100        0.0000101692        0.0000138070
	            -0.0000153865        0.0000718975       -0.0000208871
	            -0.0002096835       -0.0012695304        0.0006937232
	             0.0004527439        0.0015272381       -0.0012452006
	            -0.0000128415        0.0000056623        0.0000039471
	            -0.0000029128       -0.0000241297        0.0000540641
	            -0.0003850876       -0.0005153641        0.0015265791
	            -0.0000169381       -0.0000074915        0.0000322913
	             0.0000044456        0.0000096502       -0.0000072970
	             0.0002703160        0.0001464591       -0.0010418114
	             0.0000123257       -0.0000461808        0.0000011077
	             0.0000183385        0.0000180446        0.0000496777
	             0.0000365167        0.0000261159       -0.0000248023
	            -0.0001301264        0.0000474597       -0.0000351989

	---Fragment 1 Intrafragment Coordinates---
	 - Coordinate -           - BOHR/RAD -       - ANG/DEG -
	 R(1,4)           =         2.057249	       1.088650
	 R(2,4)           =         2.054550	       1.087221
	 R(3,4)           =         2.057471	       1.088767
	 R(4,7)           =         2.867836	       1.517594
	 R(5,7)           =         2.062196	       1.091267
	 R(6,7)           =         2.061691	       1.091000
	 R(7,10)          =         2.865629	       1.516426
	 R(8,10)          =         2.062464	       1.091409
	 R(9,10)          =         2.061687	       1.090998
	 R(10,14)         =         2.866291	       1.516776
	 R(11,14)         =         2.055191	       1.087560
	 R(12,14)         =         2.057104	       1.088572
	 R(13,14)         =         2.057260	       1.088655
	 B(1,4,2)         =         1.883607	     107.922726
	 B(1,4,3)         =         1.870518	     107.172792
	 B(1,4,7)         =         1.929984	     110.579920
	 B(2,4,3)         =         1.892112	     108.410030
	 B(2,4,7)         =         1.953809	     111.944995
	 B(3,4,7)         =         1.931063	     110.641765
	 B(4,7,5)         =         1.914998	     109.721323
	 B(4,7,6)         =         1.918002	     109.893410
	 B(4,7,10)        =         1.965133	     112.593811
	 B(5,7,6)         =         1.857816	     106.445006
	 B(5,7,10)        =         1.896712	     108.673604
	 B(6,7,10)        =         1.907967	     109.318450
	 B(7,10,8)        =         1.905110	     109.154783
	 B(7,10,9)        =         1.900183	     108.872455
	 B(7,10,14)       =         1.965313	     112.604137
	 B(8,10,9)        =         1.858481	     106.483132
	 B(8,10,14)       =         1.915681	     109.760447
	 B(9,10,14)       =         1.915926	     109.774479
	 B(10,14,11)      =         1.949368	     111.690534
	 B(10,14,12)      =         1.932378	     110.717121
	 B(10,14,13)      =         1.931739	     110.680497
	 B(11,14,12)      =         1.884170	     107.954990
	 B(11,14,13)      =         1.884129	     107.952631
	 B(12,14,13)      =         1.879632	     107.694976
	 D(1,4,7,5)       =        -2.974311	    -170.415467
	 D(1,4,7,6)       =        -0.937267	     -53.701466
	 D(1,4,7,10)      =         1.194066	      68.414952
	 D(2,4,7,5)       =        -0.873354	     -50.039481
	 D(2,4,7,6)       =         1.163690	      66.674520
	 D(2,4,7,10)      =        -2.988162	    -171.209062
	 D(3,4,7,5)       =         1.239177	      70.999596
	 D(3,4,7,6)       =        -3.006965	    -172.286403
	 D(3,4,7,10)      =        -0.875631	     -50.169984
	 D(4,7,10,8)      =        -0.989453	     -56.691485
	 D(4,7,10,9)      =         1.032677	      59.168008
	 D(4,7,10,14)     =        -3.121568	    -178.852647
	 D(5,7,10,8)      =        -3.114665	    -178.457136
	 D(5,7,10,9)      =        -1.092535	     -62.597643
	 D(5,7,10,14)     =         1.036406	      59.381702
	 D(6,7,10,8)      =         1.147539	      65.749168
	 D(6,7,10,9)      =        -3.113516	    -178.391339
	 D(6,7,10,14)     =        -0.984575	     -56.411995
	 D(7,10,14,11)    =        -3.134438	    -179.590058
	 D(7,10,14,12)    =         1.048417	      60.069866
	 D(7,10,14,13)    =        -1.034595	     -59.277944
	 D(8,10,14,11)    =         1.022612	      58.591345
	 D(8,10,14,12)    =        -1.077719	     -61.748731
	 D(8,10,14,13)    =         3.122454	     178.903458
	 D(9,10,14,11)    =        -1.014427	     -58.122382
	 D(9,10,14,12)    =        -3.114757	    -178.462458
	 D(9,10,14,13)    =         1.085416	      62.189731

	Current energy   :      -158.1607713609

	Energy change for the previous step:
		Projected    :        -0.0000014800
		Actual       :        -0.0000078252

	Performing BFGS update.
	Previous computed or guess Hessian on step 1.
	Steps to be used in Hessian update: 4 3
	Adding user-defined constraint: Fragment 1; Coordinate 46:
		Value =    -0.875631; Fixed value    =    -0.872660
		Force =     0.001783; Force constant =     0.600000
	Removing off-diagonal coupling between coordinate 46 and others.
	Taking RFO optimization step.
	Going to follow RFO solution 1.
	Using RFO vector 1.
	Norm of target step-size    0.00383
	Projected energy change by RFO approximation:         0.0000000567

	Back-transformation to cartesian coordinates...
	Successfully converged to displaced geometry.

	--- Internal Coordinate Step in ANG or DEG, aJ/ANG or AJ/DEG ---
	 ---------------------------------------------------------------------------
	   Coordinate                Previous        Force       Change         New 
	   ----------                --------       ------       ------       ------
	    1 R(1,4)          =      1.088650    -0.000137    -0.000033     1.088617
	    2 R(2,4)          =      1.087221    -0.000612    -0.000129     1.087092
	    3 R(3,4)          =      1.088767    -0.000437    -0.000093     1.088674
	    4 R(4,7)          =      1.517594     0.000512     0.000117     1.517710
	    5 R(5,7)          =      1.091267     0.000046     0.000003     1.091269
	    6 R(6,7)          =      1.091000    -0.000331    -0.000075     1.090924
	    7 R(7,10)         =      1.516426     0.000505     0.000108     1.516534
	    8 R(8,10)         =      1.091409    -0.000269    -0.000059     1.091350
	    9 R(9,10)         =      1.090998    -0.000023    -0.000015     1.090982
	   10 R(10,14)        =      1.516776     0.000522     0.000123     1.516899
	   11 R(11,14)        =      1.087560    -0.000389    -0.000084     1.087476
	   12 R(12,14)        =      1.088572    -0.000450    -0.000094     1.088478
	   13 R(13,14)        =      1.088655    -0.000411    -0.000088     1.088568
	   14 B(1,4,2)        =    107.922726     0.000000     0.004519   107.927246
	   15 B(1,4,3)        =    107.172792     0.000000    -0.010186   107.162606
	   16 B(1,4,7)        =    110.579920    -0.000002    -0.014742   110.565178
	   17 B(2,4,3)        =    108.410030     0.000001     0.016420   108.426450
	   18 B(2,4,7)        =    111.944995     0.000002     0.013006   111.958002
	   19 B(3,4,7)        =    110.641765    -0.000001    -0.009162   110.632603
	   20 B(4,7,5)        =    109.721323    -0.000000    -0.005248   109.716074
	   21 B(4,7,6)        =    109.893410    -0.000001     0.006662   109.900072
	   22 B(4,7,10)       =    112.593811     0.000002     0.007065   112.600876
	   23 B(5,7,6)        =    106.445006    -0.000000    -0.013137   106.431869
	   24 B(5,7,10)       =    108.673604    -0.000001    -0.017599   108.656005
	   25 B(6,7,10)       =    109.318450     0.000001     0.020908   109.339358
	   26 B(7,10,8)       =    109.154783    -0.000001     0.004471   109.159253
	   27 B(7,10,9)       =    108.872455    -0.000001    -0.005345   108.867110
	   28 B(7,10,14)      =    112.604137     0.000004     0.017684   112.621821
	   29 B(8,10,9)       =    106.483132     0.000000    -0.012599   106.470533
	   30 B(8,10,14)      =    109.760447    -0.000001    -0.001813   109.758633
	   31 B(9,10,14)      =    109.774479    -0.000001    -0.004091   109.770388
	   32 B(10,14,11)     =    111.690534     0.000001     0.004505   111.695039
	   33 B(10,14,12)     =    110.717121    -0.000001    -0.007430   110.709691
	   34 B(10,14,13)     =    110.680497    -0.000001    -0.007885   110.672612
	   35 B(11,14,12)     =    107.954990     0.000000     0.005006   107.959996
	   36 B(11,14,13)     =    107.952631     0.000000     0.002576   107.955207
	   37 B(12,14,13)     =    107.694976     0.000001     0.003747   107.698722
	   38 D(1,4,7,5)      =   -170.415467    -0.000000    -0.049997  -170.465464
	   39 D(1,4,7,6)      =    -53.701466    -0.000000    -0.065118   -53.766585
	   40 D(1,4,7,10)     =     68.414952    -0.000000    -0.028624    68.386328
	   41 D(2,4,7,5)      =    -50.039481    -0.000000    -0.045656   -50.085137
	   42 D(2,4,7,6)      =     66.674520    -0.000000    -0.060777    66.613742
	   43 D(2,4,7,10)     =   -171.209062     0.000000    -0.024283  -171.233345
	   44 D(3,4,7,5)      =     70.999596     0.000000    -0.022219    70.977377
	   45 D(3,4,7,6)      =   -172.286403    -0.000000    -0.037340  -172.323743
	   46 D(3,4,7,10)     =    -50.169984     0.000000    -0.000846   -50.170830
	   47 D(4,7,10,8)     =    -56.691485     0.000000     0.021206   -56.670279
	   48 D(4,7,10,9)     =     59.168008    -0.000000     0.005688    59.173696
	   49 D(4,7,10,14)    =   -178.852647    -0.000000     0.008451  -178.844196
	   50 D(5,7,10,8)     =   -178.457136     0.000000     0.035517  -178.421618
	   51 D(5,7,10,9)     =    -62.597643    -0.000000     0.020000   -62.577643
	   52 D(5,7,10,14)    =     59.381702    -0.000000     0.022763    59.404464
	   53 D(6,7,10,8)     =     65.749168     0.000000     0.049511    65.798679
	   54 D(6,7,10,9)     =   -178.391339     0.000000     0.033993  -178.357346
	   55 D(6,7,10,14)    =    -56.411995     0.000000     0.036756   -56.375238
	   56 D(7,10,14,11)   =   -179.590058     0.000000     0.053120  -179.536938
	   57 D(7,10,14,12)   =     60.069866     0.000000     0.048817    60.118683
	   58 D(7,10,14,13)   =    -59.277944     0.000000     0.054028   -59.223916
	   59 D(8,10,14,11)   =     58.591345    -0.000000     0.036643    58.627988
	   60 D(8,10,14,12)   =    -61.748731    -0.000000     0.032341   -61.716391
	   61 D(8,10,14,13)   =    178.903458    -0.000000     0.037552   178.941010
	   62 D(9,10,14,11)   =    -58.122382     0.000000     0.055357   -58.067026
	   63 D(9,10,14,12)   =   -178.462458     0.000000     0.051054  -178.411404
	   64 D(9,10,14,13)   =     62.189731     0.000000     0.056265    62.245997
	 ---------------------------------------------------------------------------
	Successfully symmetrized geometry.
	 Forces used to impose fixed constraints are not included.
	  Forces zeroed: 46 

  ==> Convergence Check <==

  Measures of convergence in internal coordinates in au.
  Criteria marked as inactive (o), active & met (*), and active & unmet ( ).
  ---------------------------------------------------------------------------------------------
   Step     Total Energy     Delta E     MAX Force     RMS Force      MAX Disp      RMS Disp   
  ---------------------------------------------------------------------------------------------
    Convergence Criteria    1.00e-06 *    3.00e-04 *             o    1.20e-03 *             o
  ---------------------------------------------------------------------------------------------
      5    -158.16077136   -7.83e-06      7.43e-05 *    2.54e-05 o    1.14e-03 *    4.78e-04 o  ~
  ---------------------------------------------------------------------------------------------


  **** Optimization is complete! (in 5 steps) ****

  ==> Optimization Summary <==

  Measures of convergence in internal coordinates in au.
  --------------------------------------------------------------------------------------------------------------- ~
   Step         Total Energy             Delta E       MAX Force       RMS Force        MAX Disp        RMS Disp  ~
  --------------------------------------------------------------------------------------------------------------- ~
      1    -158.156518134321   -158.156518134321      0.01316342      0.00561959      0.02514301      0.01250558  ~
      2    -158.159560033212     -0.003041898891      0.00479930      0.00225757      0.02914934      0.01252192  ~
      3    -158.160560382266     -0.001000349054      0.00153778      0.00060188      0.04431516      0.01251344  ~
      4    -158.160763535672     -0.000203153406      0.00054297      0.00015733      0.01130579      0.00344361  ~
      5    -158.160771360916     -0.000007825244      0.00007430      0.00002553      0.00113653      0.00047829  ~
  --------------------------------------------------------------------------------------------------------------- ~

	Writing optimization data to binary file.
	Final energy is   -158.1607713609161
	Final (previous) structure:
	Cartesian Geometry (in Angstrom)
	    H    -2.3637035502   0.1896744546   0.4112266834
	    H    -2.1653617085   1.7069825645  -0.4571706663
	    H    -1.9355598149   0.1667212473  -1.2877901915
	    C    -1.7753027517   0.6977206776  -0.3508962349
	    H     0.2484815644   1.3477065418  -0.6566020995
	    H    -0.1732866525   1.1069514180   1.0224994564
	    C    -0.3039693436   0.6945559915   0.0209344931
	    H    -0.2560644941  -1.3586796168   0.6198977658
	    H     0.1987813190  -1.0855336013  -1.0461309504
	    C     0.3079891459  -0.6917976008  -0.0345375495
	    H     2.1969899754  -1.6989389205   0.3120021965
	    H     1.8953555102  -0.3343799068   1.3819021761
	    H     2.3519447890  -0.0531493478  -0.2923153650
	    C     1.7714864513  -0.6994170586   0.3638678045
	Saving final (previous) structure.
			--------------------------
			 OPTKING Finished Execution 
			--------------------------

    Final optimized geometry and variables:
    Molecular point group: c1
    Full point group: C1

    Geometry (in Angstrom), charge = 0, multiplicity = 1:

    H           -2.363703550166     0.189674454623     0.411226683373
    H           -2.165361708450     1.706982564478    -0.457170666307
    H           -1.935559814918     0.166721247331    -1.287790191475
    C           -1.775302751659     0.697720677610    -0.350896234939
    H            0.248481564426     1.347706541844    -0.656602099497
    H           -0.173286652505     1.106951418017     1.022499456368
    C           -0.303969343635     0.694555991471     0.020934493072
    H           -0.256064494146    -1.358679616763     0.619897765793
    H            0.198781319005    -1.085533601296    -1.046130950440
    C            0.307989145894    -0.691797600812    -0.034537549499
    H            2.196989975445    -1.698938920452     0.312002196500
    H            1.895355510221    -0.334379906815     1.381902176058
    H            2.351944789001    -0.053149347790    -0.292315365023
    C            1.771486451286    -0.699417058631     0.363867804548

	Cleaning optimization helper files.

*** Psi4 exiting successfully. Buy a developer a beer!
