
    -----------------------------------------------------------------------
          Psi4: An Open-Source Ab Initio Electronic Structure Package
                               Psi4 1.1 release

                         Git: Rev {HEAD} add49b9 


    R. M. Parrish, L. A. Burns, D. G. A. Smith, A. C. Simmonett,
    A. E. DePrince III, E. G. Hohenstein, U. Bozkaya, A. Yu. Sokolov,
    R. Di Remigio, R. M. Richard, J. F. Gonthier, A. M. James,
    H. R. McAlexander, A. Kumar, M. Saitow, X. Wang, B. P. Pritchard,
    P. Verma, H. F. Schaefer III, K. Patkowski, R. A. King, E. F. Valeev,
    F. A. Evangelista, J. M. Turney, T. D. Crawford, and C. D. Sherrill,
    J. Chem. Theory Comput. in press (2017).
    (doi: 10.1021/acs.jctc.7b00174)

    -----------------------------------------------------------------------


    Psi4 started on: Wednesday, 14 June 2017 02:53PM

    Process ID:  16167
    PSIDATADIR: /cbio/jclab/home/chayas/anaconda/envs/py35/share/psi4
    Memory:     500.0 MiB
    Threads:    1
    
  ==> Input File <==

--------------------------------------------------------------------------

memory 1000 mb

molecule butane {
  symmetry C1
  0 1 
  H      1.604   0.760   -8.260
  H      1.745   2.388   -8.880
  H      2.043   1.024   -9.930
  C      2.142   1.395   -8.932
  H      4.169   2.051   -9.210
  H      3.731   1.788   -7.539
  C      3.631   1.416   -8.537
  H      3.665   -0.647   -7.940
  H      4.104   -0.384   -9.610
  C      4.203   -0.012   -8.612
  H      5.778   0.037   -7.152
  H      6.159   0.875   -8.637
  H      6.172   -0.871   -8.591
  C      5.691   0.009   -8.218
  units Angstrom
}

dih_string = "7 10 14 13 200"
set optking fixed_dihedral = $dih_string

optimize('MP2/aug-cc-pvtz')
--------------------------------------------------------------------------

  Memory set to 953.674 MiB by Python driver.
gradient() will perform analytic gradient computation.

*** tstart() called on gpu-1-16.local
*** at Wed Jun 14 14:53:30 2017

    SCF Algorithm Type (re)set to DF.

*** tstart() called on gpu-1-16.local
*** at Wed Jun 14 14:53:30 2017

   => Loading Basis Set <=

    Name: AUG-CC-PVTZ
    Role: ORBITAL
    Keyword: BASIS
    atoms 1-3, 5-6, 8-9, 11-13 entry H          line    34 file /cbio/jclab/home/chayas/anaconda/envs/py35/share/psi4/basis/aug-cc-pvtz.gbs 
    atoms 4, 7, 10, 14         entry C          line   221 file /cbio/jclab/home/chayas/anaconda/envs/py35/share/psi4/basis/aug-cc-pvtz.gbs 


         ---------------------------------------------------------
                                   SCF
            by Justin Turney, Rob Parrish, and Andy Simmonett
                              RHF Reference
                        1 Threads,    953 MiB Core
         ---------------------------------------------------------

  ==> Geometry <==

    Molecular point group: c1
    Full point group: C1

    Geometry (in Angstrom), charge = 0, multiplicity = 1:

       Center              X                  Y                   Z               Mass       
    ------------   -----------------  -----------------  -----------------  -----------------
           H         -2.312793382205     0.057982647118     0.314776029323     1.007825032070
           H         -2.171793382205     1.685982647118    -0.305223970677     1.007825032070
           H         -1.873793382205     0.321982647118    -1.355223970677     1.007825032070
           C         -1.774793382205     0.692982647118    -0.357223970677    12.000000000000
           H          0.252206617795     1.348982647118    -0.635223970677     1.007825032070
           H         -0.185793382205     1.085982647118     1.035776029323     1.007825032070
           C         -0.285793382205     0.713982647118     0.037776029323    12.000000000000
           H         -0.251793382205    -1.349017352882     0.634776029323     1.007825032070
           H          0.187206617795    -1.086017352882    -1.035223970677     1.007825032070
           C          0.286206617795    -0.714017352882    -0.037223970677    12.000000000000
           H          1.861206617795    -0.665017352882     1.422776029323     1.007825032070
           H          2.242206617795     0.172982647118    -0.062223970677     1.007825032070
           H          2.255206617795    -1.573017352882    -0.016223970677     1.007825032070
           C          1.774206617795    -0.693017352882     0.356776029323    12.000000000000

  Running in c1 symmetry.

  Rotational constants: A =      0.76953  B =      0.12464  C =      0.11638 [cm^-1]
  Rotational constants: A =  23070.01005  B =   3736.62907  C =   3488.90379 [MHz]
  Nuclear repulsion =  131.827512910781991

  Charge       = 0
  Multiplicity = 1
  Electrons    = 34
  Nalpha       = 17
  Nbeta        = 17

  ==> Algorithm <==

  SCF Algorithm Type is DF.
  DIIS enabled.
  MOM disabled.
  Fractional occupation disabled.
  Guess Type is SAD.
  Energy threshold   = 1.00e-10
  Density threshold  = 1.00e-10
  Integral threshold = 0.00e+00

  ==> Primary Basis <==

  Basis Set: AUG-CC-PVTZ
    Blend: AUG-CC-PVTZ
    Number of shells: 146
    Number of basis function: 414
    Number of Cartesian functions: 470
    Spherical Harmonics?: true
    Max angular momentum: 3

   => Loading Basis Set <=

    Name: (AUG-CC-PVTZ AUX)
    Role: JKFIT
    Keyword: DF_BASIS_SCF
    atoms 1-3, 5-6, 8-9, 11-13 entry H          line    69 file /cbio/jclab/home/chayas/anaconda/envs/py35/share/psi4/basis/aug-cc-pvtz-jkfit.gbs 
    atoms 4, 7, 10, 14         entry C          line   161 file /cbio/jclab/home/chayas/anaconda/envs/py35/share/psi4/basis/aug-cc-pvtz-jkfit.gbs 

  ==> Pre-Iterations <==

   -------------------------------------------------------
    Irrep   Nso     Nmo     Nalpha   Nbeta   Ndocc  Nsocc
   -------------------------------------------------------
     A        414     414       0       0       0       0
   -------------------------------------------------------
    Total     414     414      17      17      17       0
   -------------------------------------------------------

  ==> Integral Setup <==

  ==> DFJK: Density-Fitted J/K Matrices <==

    J tasked:                  Yes
    K tasked:                  Yes
    wK tasked:                  No
    OpenMP threads:              1
    Integrals threads:           1
    Memory (MB):               715
    Algorithm:                Core
    Integral Cache:           NONE
    Schwarz Cutoff:          1E-12
    Fitting Condition:       1E-12

   => Auxiliary Basis Set <=

  Basis Set: (AUG-CC-PVTZ AUX)
    Blend: AUG-CC-PVTZ-JKFIT
    Number of shells: 260
    Number of basis function: 876
    Number of Cartesian functions: 1074
    Spherical Harmonics?: true
    Max angular momentum: 4

  Minimum eigenvalue in the overlap matrix is 8.3459925254E-06.
  Using Symmetric Orthogonalization.

  SCF Guess: Superposition of Atomic Densities via on-the-fly atomic UHF.

  ==> Iterations <==

                           Total Energy        Delta E     RMS |[F,P]|

   @DF-RHF iter   0:  -158.79503101229980   -1.58795e+02   9.16121e-03 
   @DF-RHF iter   1:  -157.21765394658621    1.57738e+00   1.09133e-03 
   @DF-RHF iter   2:  -157.33190459842046   -1.14251e-01   4.13872e-04 DIIS
   @DF-RHF iter   3:  -157.34896980161142   -1.70652e-02   1.22973e-04 DIIS
   @DF-RHF iter   4:  -157.35133515774956   -2.36536e-03   2.13071e-05 DIIS
   @DF-RHF iter   5:  -157.35141290675111   -7.77490e-05   7.08143e-06 DIIS
   @DF-RHF iter   6:  -157.35142055238441   -7.64563e-06   1.38781e-06 DIIS
   @DF-RHF iter   7:  -157.35142095279784   -4.00413e-07   2.21011e-07 DIIS
   @DF-RHF iter   8:  -157.35142096450070   -1.17029e-08   3.56020e-08 DIIS
   @DF-RHF iter   9:  -157.35142096477378   -2.73076e-10   8.04618e-09 DIIS
   @DF-RHF iter  10:  -157.35142096478927   -1.54898e-11   1.69411e-09 DIIS
   @DF-RHF iter  11:  -157.35142096478927    0.00000e+00   4.53702e-10 DIIS
   @DF-RHF iter  12:  -157.35142096478825    1.02318e-12   1.20543e-10 DIIS
   @DF-RHF iter  13:  -157.35142096478779    4.54747e-13   2.06760e-11 DIIS

  ==> Post-Iterations <==

    Orbital Energies (a.u.)
    -----------------------

    Doubly Occupied:                                                      

       1A    -11.207149     2A    -11.206237     3A    -11.198663  
       4A    -11.198202     5A     -1.070699     6A     -0.981137  
       7A     -0.861517     8A     -0.795034     9A     -0.647342  
      10A     -0.587555    11A     -0.575747    12A     -0.570866  
      13A     -0.513997    14A     -0.503682    15A     -0.475255  
      16A     -0.468634    17A     -0.441442  

    Virtual:                                                              

      18A      0.032282    19A      0.037234    20A      0.039545  
      21A      0.040790    22A      0.057059    23A      0.058510  
      24A      0.059792    25A      0.061039    26A      0.081905  
      27A      0.083319    28A      0.098525    29A      0.112474  
      30A      0.123181    31A      0.130716    32A      0.136172  
      33A      0.142056    34A      0.143278    35A      0.146393  
      36A      0.148373    37A      0.159854    38A      0.161414  
      39A      0.167264    40A      0.170865    41A      0.202006  
      42A      0.209112    43A      0.210898    44A      0.229830  
      45A      0.247389    46A      0.249615    47A      0.252594  
      48A      0.269642    49A      0.276761    50A      0.282683  
      51A      0.284370    52A      0.315532    53A      0.318075  
      54A      0.330912    55A      0.337017    56A      0.342372  
      57A      0.351173    58A      0.357650    59A      0.358459  
      60A      0.362677    61A      0.373577    62A      0.374599  
      63A      0.383312    64A      0.386863    65A      0.389953  
      66A      0.391992    67A      0.396830    68A      0.402399  
      69A      0.407427    70A      0.413737    71A      0.422521  
      72A      0.429688    73A      0.443727    74A      0.448923  
      75A      0.455690    76A      0.462129    77A      0.464089  
      78A      0.465075    79A      0.474850    80A      0.481294  
      81A      0.487541    82A      0.493795    83A      0.501491  
      84A      0.504030    85A      0.509210    86A      0.513262  
      87A      0.520287    88A      0.533044    89A      0.533579  
      90A      0.537351    91A      0.545432    92A      0.560146  
      93A      0.567571    94A      0.572954    95A      0.586585  
      96A      0.591719    97A      0.602469    98A      0.611308  
      99A      0.622008   100A      0.631646   101A      0.638859  
     102A      0.660592   103A      0.681054   104A      0.686297  
     105A      0.700943   106A      0.712204   107A      0.762583  
     108A      0.779104   109A      0.797234   110A      0.814721  
     111A      0.822501   112A      0.827670   113A      0.836831  
     114A      0.844799   115A      0.849432   116A      0.860259  
     117A      0.864575   118A      0.867252   119A      0.886226  
     120A      0.892190   121A      0.897125   122A      0.902880  
     123A      0.906527   124A      0.922439   125A      0.926845  
     126A      0.931599   127A      0.937204   128A      0.943406  
     129A      0.944276   130A      0.960510   131A      0.967051  
     132A      0.971424   133A      0.978830   134A      0.986270  
     135A      0.994130   136A      1.014950   137A      1.019829  
     138A      1.034975   139A      1.048961   140A      1.065665  
     141A      1.071962   142A      1.081122   143A      1.093905  
     144A      1.110567   145A      1.114099   146A      1.123785  
     147A      1.130729   148A      1.133650   149A      1.141745  
     150A      1.159089   151A      1.164266   152A      1.166622  
     153A      1.176979   154A      1.193141   155A      1.202154  
     156A      1.219780   157A      1.224095   158A      1.231962  
     159A      1.246322   160A      1.256426   161A      1.260892  
     162A      1.265286   163A      1.273602   164A      1.279794  
     165A      1.296189   166A      1.304052   167A      1.321594  
     168A      1.327700   169A      1.342166   170A      1.352962  
     171A      1.360471   172A      1.388624   173A      1.400993  
     174A      1.423949   175A      1.432300   176A      1.442125  
     177A      1.462437   178A      1.482437   179A      1.499440  
     180A      1.507832   181A      1.522283   182A      1.526479  
     183A      1.551880   184A      1.559325   185A      1.563256  
     186A      1.586619   187A      1.593591   188A      1.616388  
     189A      1.632312   190A      1.645950   191A      1.649779  
     192A      1.652203   193A      1.677498   194A      1.692637  
     195A      1.695414   196A      1.702787   197A      1.711437  
     198A      1.721221   199A      1.733472   200A      1.743415  
     201A      1.745157   202A      1.759414   203A      1.766097  
     204A      1.777888   205A      1.782861   206A      1.795566  
     207A      1.797921   208A      1.809772   209A      1.822097  
     210A      1.846442   211A      1.864404   212A      1.872405  
     213A      1.890619   214A      1.904271   215A      1.916209  
     216A      1.926993   217A      1.961089   218A      1.974956  
     219A      1.986547   220A      1.993158   221A      2.001133  
     222A      2.009109   223A      2.033264   224A      2.043574  
     225A      2.048878   226A      2.066648   227A      2.092280  
     228A      2.102698   229A      2.124189   230A      2.145432  
     231A      2.162622   232A      2.193708   233A      2.196557  
     234A      2.207742   235A      2.243182   236A      2.256120  
     237A      2.264630   238A      2.281520   239A      2.301415  
     240A      2.310342   241A      2.333611   242A      2.335853  
     243A      2.348689   244A      2.359322   245A      2.372161  
     246A      2.375744   247A      2.424765   248A      2.444833  
     249A      2.466713   250A      2.479757   251A      2.506870  
     252A      2.554041   253A      2.603509   254A      2.622228  
     255A      2.640126   256A      2.663277   257A      2.716583  
     258A      2.888993   259A      2.923993   260A      3.009582  
     261A      3.235084   262A      3.249271   263A      3.303449  
     264A      3.372143   265A      3.389631   266A      3.421292  
     267A      3.450891   268A      3.454927   269A      3.471412  
     270A      3.485290   271A      3.525284   272A      3.542932  
     273A      3.571970   274A      3.572300   275A      3.597052  
     276A      3.609448   277A      3.629748   278A      3.664951  
     279A      3.685338   280A      3.694801   281A      3.714675  
     282A      3.719682   283A      3.737023   284A      3.743767  
     285A      3.757274   286A      3.769679   287A      3.779594  
     288A      3.799490   289A      3.810604   290A      3.824018  
     291A      3.846362   292A      3.858503   293A      3.877147  
     294A      3.889028   295A      3.915775   296A      3.928273  
     297A      3.940046   298A      3.950097   299A      3.976994  
     300A      3.997010   301A      4.008354   302A      4.017007  
     303A      4.022789   304A      4.025054   305A      4.049279  
     306A      4.058540   307A      4.071767   308A      4.084795  
     309A      4.124791   310A      4.182925   311A      4.198568  
     312A      4.212418   313A      4.231417   314A      4.240156  
     315A      4.251680   316A      4.276885   317A      4.280653  
     318A      4.290219   319A      4.309709   320A      4.333349  
     321A      4.339407   322A      4.372902   323A      4.381887  
     324A      4.411290   325A      4.427217   326A      4.443075  
     327A      4.526650   328A      4.551854   329A      4.577328  
     330A      4.590343   331A      4.632186   332A      4.666393  
     333A      4.687184   334A      4.698899   335A      4.718666  
     336A      4.736237   337A      4.745796   338A      4.751164  
     339A      4.773399   340A      4.795587   341A      4.808111  
     342A      4.861703   343A      4.869312   344A      4.884155  
     345A      4.890127   346A      4.916567   347A      4.942241  
     348A      4.955318   349A      4.974662   350A      5.006517  
     351A      5.043146   352A      5.069548   353A      5.084118  
     354A      5.094664   355A      5.131692   356A      5.171290  
     357A      5.181093   358A      5.200036   359A      5.207597  
     360A      5.238750   361A      5.254633   362A      5.270513  
     363A      5.276516   364A      5.310470   365A      5.319052  
     366A      5.340153   367A      5.391343   368A      5.414117  
     369A      5.438719   370A      5.449637   371A      5.458761  
     372A      5.468222   373A      5.498937   374A      5.519247  
     375A      5.584334   376A      5.602914   377A      5.624989  
     378A      5.643907   379A      5.680301   380A      5.684026  
     381A      5.698354   382A      5.758393   383A      5.777202  
     384A      5.790863   385A      5.820841   386A      5.862156  
     387A      5.906729   388A      5.918905   389A      5.958282  
     390A      6.025087   391A      6.120693   392A      6.157345  
     393A      6.175097   394A      6.191345   395A      6.245044  
     396A      6.264894   397A      6.271878   398A      6.315378  
     399A      6.318189   400A      6.357727   401A      6.407816  
     402A      6.437488   403A      6.556884   404A      6.570410  
     405A      6.747789   406A      6.784043   407A      6.830815  
     408A      6.849803   409A      6.857797   410A      6.984127  
     411A     18.069508   412A     18.381423   413A     18.671569  
     414A     18.953906  

    Final Occupation by Irrep:
              A 
    DOCC [    17 ]

  Energy converged.

  @DF-RHF Final Energy:  -157.35142096478779

   => Energetics <=

    Nuclear Repulsion Energy =            131.8275129107819907
    One-Electron Energy =                -471.7515562275707452
    Two-Electron Energy =                 182.5726223520009626
    DFT Exchange-Correlation Energy =       0.0000000000000000
    Empirical Dispersion Energy =           0.0000000000000000
    PCM Polarization Energy =               0.0000000000000000
    EFP Energy =                            0.0000000000000000
    Total Energy =                       -157.3514209647877919



Properties will be evaluated at   0.000000,   0.000000,   0.000000 Bohr

Properties computed using the SCF density matrix

  Nuclear Dipole Moment: (a.u.)
     X:     0.0019      Y:     0.0008      Z:    -0.0012

  Electronic Dipole Moment: (a.u.)
     X:    -0.0024      Y:    -0.0016      Z:     0.0024

  Dipole Moment: (a.u.)
     X:    -0.0005      Y:    -0.0009      Z:     0.0012     Total:     0.0016

  Dipole Moment: (Debye)
     X:    -0.0012      Y:    -0.0022      Z:     0.0031     Total:     0.0040


*** tstop() called on gpu-1-16.local at Wed Jun 14 14:55:05 2017
Module time:
	user time   =      93.32 seconds =       1.56 minutes
	system time =       1.99 seconds =       0.03 minutes
	total time  =         95 seconds =       1.58 minutes
Total time:
	user time   =      93.33 seconds =       1.56 minutes
	system time =       1.99 seconds =       0.03 minutes
	total time  =         95 seconds =       1.58 minutes

  //>>>>>>>>>>>>>>>>>>>>>>>>>>>>>>>>>>>//
  //               DFMP2               //
  //<<<<<<<<<<<<<<<<<<<<<<<<<<<<<<<<<<<//

   => Loading Basis Set <=

    Name: (AUG-CC-PVTZ AUX)
    Role: RIFIT
    Keyword: DF_BASIS_MP2
    atoms 1-3, 5-6, 8-9, 11-13 entry H          line    29 file /cbio/jclab/home/chayas/anaconda/envs/py35/share/psi4/basis/aug-cc-pvtz-ri.gbs 
    atoms 4, 7, 10, 14         entry C          line   147 file /cbio/jclab/home/chayas/anaconda/envs/py35/share/psi4/basis/aug-cc-pvtz-ri.gbs 

	 --------------------------------------------------------
	                          DF-MP2                         
	      2nd-Order Density-Fitted Moller-Plesset Theory     
	              RMP2 Wavefunction,   1 Threads             
	                                                         
	        Rob Parrish, Justin Turney, Andy Simmonett,      
	           Ed Hohenstein, and C. David Sherrill          
	 --------------------------------------------------------

   => Auxiliary Basis Set <=

  Basis Set: (AUG-CC-PVTZ AUX)
    Blend: AUG-CC-PVTZ-RI
    Number of shells: 252
    Number of basis function: 884
    Number of Cartesian functions: 1094
    Spherical Harmonics?: true
    Max angular momentum: 4

	 --------------------------------------------------------
	                 NBF =   414, NAUX =   884
	 --------------------------------------------------------
	   CLASS    FOCC     OCC    AOCC    AVIR     VIR    FVIR
	   PAIRS       0      17      17     397     397       0
	 --------------------------------------------------------


         ------------------------------------------------------------
                                     CPHF                           
                                  Rob Parrish                       
         ------------------------------------------------------------

  ==> Geometry <==

    Molecular point group: c1
    Full point group: C1

    Geometry (in Angstrom), charge = 0, multiplicity = 1:

       Center              X                  Y                   Z               Mass       
    ------------   -----------------  -----------------  -----------------  -----------------
           H         -2.312793382205     0.057982647118     0.314776029323     1.007825032070
           H         -2.171793382205     1.685982647118    -0.305223970677     1.007825032070
           H         -1.873793382205     0.321982647118    -1.355223970677     1.007825032070
           C         -1.774793382205     0.692982647118    -0.357223970677    12.000000000000
           H          0.252206617795     1.348982647118    -0.635223970677     1.007825032070
           H         -0.185793382205     1.085982647118     1.035776029323     1.007825032070
           C         -0.285793382205     0.713982647118     0.037776029323    12.000000000000
           H         -0.251793382205    -1.349017352882     0.634776029323     1.007825032070
           H          0.187206617795    -1.086017352882    -1.035223970677     1.007825032070
           C          0.286206617795    -0.714017352882    -0.037223970677    12.000000000000
           H          1.861206617795    -0.665017352882     1.422776029323     1.007825032070
           H          2.242206617795     0.172982647118    -0.062223970677     1.007825032070
           H          2.255206617795    -1.573017352882    -0.016223970677     1.007825032070
           C          1.774206617795    -0.693017352882     0.356776029323    12.000000000000

  Nuclear repulsion =  131.827512910781991
  Reference energy  = -157.351420964787792

  ==> Basis Set <==

  Basis Set: AUG-CC-PVTZ
    Blend: AUG-CC-PVTZ
    Number of shells: 146
    Number of basis function: 414
    Number of Cartesian functions: 470
    Spherical Harmonics?: true
    Max angular momentum: 3

  ==> CGRSolver (by Rob Parrish) <==

   Number of roots    =         1
   Preconditioning    =    JACOBI
   Convergence cutoff =     1E-06
   Maximum iterations =       100

  ==> CPHFRHamiltonian (by Rob Parrish) <== 

  ==> DFJK: Density-Fitted J/K Matrices <==

    J tasked:                  Yes
    K tasked:                  Yes
    wK tasked:                  No
    OpenMP threads:              1
    Integrals threads:           1
    Memory (MB):               715
    Algorithm:                Core
    Integral Cache:           NONE
    Schwarz Cutoff:          1E-12
    Fitting Condition:       1E-12

   => Auxiliary Basis Set <=

  Basis Set: (AUG-CC-PVTZ AUX)
    Blend: AUG-CC-PVTZ-JKFIT
    Number of shells: 260
    Number of basis function: 876
    Number of Cartesian functions: 1074
    Spherical Harmonics?: true
    Max angular momentum: 4

  ==> CPHF Iterations <==

  => Iterations <=

             Iter  Converged  Remaining    Residual
  CGR           1          0          1   8.159E-02
  CGR           2          0          1   1.305E-02
  CGR           3          0          1   3.413E-03
  CGR           4          0          1   8.052E-04
  CGR           5          0          1   1.185E-04
  CGR           6          0          1   2.128E-05
  CGR           7          0          1   3.761E-06
  CGR           8          1          0   8.617E-07

    CGRSolver converged.

  ==> DFCorrGrad: Density-Fitted Correlated Gradients <==

    OpenMP threads:              1
    Integrals threads:           1
    Memory (MB):               715
    Schwarz Cutoff:          0E+00
    Fitting Condition:       1E-12

   => Auxiliary Basis Set <=

  Basis Set: (AUG-CC-PVTZ AUX)
    Blend: AUG-CC-PVTZ-JKFIT
    Number of shells: 260
    Number of basis function: 876
    Number of Cartesian functions: 1074
    Spherical Harmonics?: true
    Max angular momentum: 4

	-----------------------------------------------------------
	 ==================> DF-MP2 Energies <==================== 
	-----------------------------------------------------------
	 Reference Energy          =    -157.3514209647877919 [Eh]
	 Singles Energy            =      -0.0000000000000000 [Eh]
	 Same-Spin Energy          =      -0.1654004170969161 [Eh]
	 Opposite-Spin Energy      =      -0.6388839243086871 [Eh]
	 Correlation Energy        =      -0.8042843414056031 [Eh]
	 Total Energy              =    -158.1557053061933971 [Eh]
	-----------------------------------------------------------
	 ================> DF-SCS-MP2 Energies <================== 
	-----------------------------------------------------------
	 SCS Same-Spin Scale       =       0.3333333333333333 [-]
	 SCS Opposite-Spin Scale   =       1.2000000000000000 [-]
	 SCS Same-Spin Energy      =      -0.0551334723656387 [Eh]
	 SCS Opposite-Spin Energy  =      -0.7666607091704245 [Eh]
	 SCS Correlation Energy    =      -0.8217941815360632 [Eh]
	 SCS Total Energy          =    -158.1732151463238552 [Eh]
	-----------------------------------------------------------


  -Total Gradient:
     Atom            X                  Y                   Z
    ------   -----------------  -----------------  -----------------
       1        0.007956241506     0.006727999037    -0.006309892434
       2        0.008175291778    -0.009375242446     0.000613420083
       3        0.003199318346     0.004204227788     0.011235272218
       4       -0.025098989953    -0.007051096239    -0.008324637174
       5       -0.007750127300    -0.007815025064     0.006134730227
       6       -0.003320895898    -0.005870978070    -0.011614760697
       7        0.022792415528     0.031266773723     0.010278361687
       8        0.008119092211     0.008840938723    -0.005511228451
       9        0.003678325960     0.004761923501     0.011668620523
      10       -0.020518864153    -0.031136616505    -0.009392552160
      11       -0.003833646500    -0.001493325388    -0.011244478856
      12       -0.007475558377    -0.008468765923     0.004257004015
      13       -0.009067358448     0.009004410959     0.001435841954
      14        0.023144755298     0.006404775902     0.006774299066


*** tstop() called on gpu-1-16.local at Wed Jun 14 15:01:04 2017
Module time:
	user time   =     444.55 seconds =       7.41 minutes
	system time =       7.77 seconds =       0.13 minutes
	total time  =        454 seconds =       7.57 minutes
Total time:
	user time   =     444.56 seconds =       7.41 minutes
	system time =       7.77 seconds =       0.13 minutes
	total time  =        454 seconds =       7.57 minutes

			-----------------------------------------
			 OPTKING 2.0: for geometry optimizations 
			  - R.A. King,  Bethel University        
			-----------------------------------------

	Internal coordinates to be generated automatically.
	Detected frag 1 with atoms:  1 2 3 4 5 6 7 8 9 10 11 12 13 14
	---Fragment 1 Bond Connectivity---
	 1 : 4
	 2 : 4
	 3 : 4
	 4 : 1 2 3 7
	 5 : 7
	 6 : 7
	 7 : 4 5 6 10
	 8 : 10
	 9 : 10
	 10 : 7 8 9 14
	 11 : 14
	 12 : 14
	 13 : 14
	 14 : 10 11 12 13

	Assuming in current code that numbering for constraints corresponds to unified fragment.
	Fixed dihedral atom list: 
	     7    10    14    13
	---Fragment 1 Geometry and Gradient---
	 H          -4.3705460943        0.1095713235        0.5948404886
	 H          -4.1040947096        3.1860454679       -0.5767897138
	 H          -3.5409563220        0.6084590226       -2.5610021533
	 C          -3.3538734348        1.3095474179       -0.6750554727
	 H           0.4766014365        2.5492077611       -1.2003993376
	 H          -0.3510986097        2.0522097881        1.9573330304
	 C          -0.5400712230        1.3492316667        0.0713863498
	 H          -0.4758205344       -2.5492733455        1.1995528511
	 H           0.3537692379       -2.0522753725       -1.9562897908
	 C           0.5408521251       -1.3492972511       -0.0703431102
	 H           3.5171707843       -1.2567006706        2.6886570439
	 H           4.2371564410        0.3268898288       -0.1175862635
	 H           4.2617228807       -2.9725719992       -0.0306588614
	 C           3.3527646108       -1.3096130023        0.6742089862
	             0.0079562415        0.0067279990       -0.0063098924
	             0.0081752918       -0.0093752424        0.0006134201
	             0.0031993183        0.0042042278        0.0112352722
	            -0.0250989900       -0.0070510962       -0.0083246372
	            -0.0077501273       -0.0078150251        0.0061347302
	            -0.0033208959       -0.0058709781       -0.0116147607
	             0.0227924155        0.0312667737        0.0102783617
	             0.0081190922        0.0088409387       -0.0055112285
	             0.0036783260        0.0047619235        0.0116686205
	            -0.0205188642       -0.0311366165       -0.0093925522
	            -0.0038336465       -0.0014933254       -0.0112444789
	            -0.0074755584       -0.0084687659        0.0042570040
	            -0.0090673584        0.0090044110        0.0014358420
	             0.0231447553        0.0064047759        0.0067742991

	Previous optimization step data not found.  Starting new optimization.

	---Fragment 1 Intrafragment Coordinates---
	 - Coordinate -           - BOHR/RAD -       - ANG/DEG -
	 R(1,4)           =         2.021436	       1.069698
	 R(2,4)           =         2.023298	       1.070683
	 R(3,4)           =         2.020723	       1.069320
	 R(4,7)           =         2.911397	       1.540645
	 R(5,7)           =         2.022623	       1.070326
	 R(6,7)           =         2.021555	       1.069761
	 R(7,10)          =         2.910419	       1.540128
	 R(8,10)          =         2.021436	       1.069698
	 R(9,10)          =         2.021379	       1.069668
	 R(10,14)         =         2.909087	       1.539422
	 R(11,14)         =         2.021838	       1.069911
	 R(12,14)         =         2.021690	       1.069832
	 R(13,14)         =         2.021998	       1.069995
	 B(1,4,2)         =         1.910870	     109.484805
	 B(1,4,3)         =         1.911121	     109.499161
	 B(1,4,7)         =         1.910399	     109.457783
	 B(2,4,3)         =         1.910042	     109.437340
	 B(2,4,7)         =         1.910564	     109.467262
	 B(3,4,7)         =         1.910803	     109.480971
	 B(4,7,5)         =         1.909937	     109.431343
	 B(4,7,6)         =         1.911630	     109.528316
	 B(4,7,10)        =         1.911154	     109.501062
	 B(5,7,6)         =         1.910605	     109.469614
	 B(5,7,10)        =         1.910047	     109.437654
	 B(6,7,10)        =         1.910425	     109.459295
	 B(7,10,8)        =         1.910303	     109.452301
	 B(7,10,9)        =         1.910824	     109.482155
	 B(7,10,14)       =         1.911213	     109.504437
	 B(8,10,9)        =         1.910417	     109.458846
	 B(8,10,14)       =         1.910766	     109.478806
	 B(9,10,14)       =         1.910276	     109.450772
	 B(10,14,11)      =         1.911299	     109.509347
	 B(10,14,12)      =         1.910961	     109.490021
	 B(10,14,13)      =         1.911424	     109.516525
	 B(11,14,12)      =         1.910771	     109.479096
	 B(11,14,13)      =         1.909532	     109.408124
	 B(12,14,13)      =         1.909812	     109.424147
	 D(1,4,7,5)       =         3.140997	     179.965873
	 D(1,4,7,6)       =        -1.047644	     -60.025575
	 D(1,4,7,10)      =         1.047427	      60.013132
	 D(2,4,7,5)       =        -1.047689	     -60.028143
	 D(2,4,7,6)       =         1.046856	      59.980409
	 D(2,4,7,10)      =        -3.141259	    -179.980883
	 D(3,4,7,5)       =         1.046044	      59.933911
	 D(3,4,7,6)       =         3.140588	     179.942463
	 D(3,4,7,10)      =        -1.047526	     -60.018830
	 D(4,7,10,8)      =        -1.047368	     -60.009777
	 D(4,7,10,9)      =         1.046677	      59.970178
	 D(4,7,10,14)     =         3.141107	     179.972182
	 D(5,7,10,8)      =        -3.140871	    -179.958653
	 D(5,7,10,9)      =        -1.046826	     -59.978698
	 D(5,7,10,14)     =         1.047604	      60.023306
	 D(6,7,10,8)      =         1.048439	      60.071149
	 D(6,7,10,9)      =        -3.140701	    -179.948896
	 D(6,7,10,14)     =        -1.046271	     -59.946893
	 D(7,10,14,11)    =         1.396491	      80.013039
	 D(7,10,14,12)    =        -0.698682	     -40.031513
	 D(7,10,14,13)    =        -2.792756	    -160.013127
	 D(8,10,14,11)    =        -0.697936	     -39.988783
	 D(8,10,14,12)    =        -2.793109	    -160.033335
	 D(8,10,14,13)    =         1.396002	      79.985051
	 D(9,10,14,11)    =        -2.791929	    -159.965754
	 D(9,10,14,12)    =         1.396084	      79.989695
	 D(9,10,14,13)    =        -0.697991	     -39.991919

	Current energy   :      -158.1557053062

	Generating empirical Hessian (Schlegel '84) for each fragment.
	Adding user-defined constraint: Fragment 1; Coordinate 58:
		Value =    -2.792756; Fixed value    =    -2.792527
		Force =     0.000115; Force constant =     0.500000
	Removing off-diagonal coupling between coordinate 58 and others.
	Taking RFO optimization step.
	Going to follow RFO solution 1.
	Using RFO vector 1.

	Determining step-restricting scale parameter for RS-RFO.
	Maximum step size allowed    0.10000

	 Iter      |step|        alpha        rfo_root  
	------------------------------------------------
	    0     0.20017       1.00000           1
	    1     0.15686       5.27572           1
	    2     0.12446      15.66143           1
	    3     0.10668      28.37072           1
	    4     0.10070      34.78647           1
	    5     0.10001      35.61972           1
	------------------------------------------------
	Norm of target step-size    0.10001
	Projected energy change by RFO approximation:        -0.0039317178

	Back-transformation to cartesian coordinates...
	Could not converge backtransformation.
	Using first guess instead.

	--- Internal Coordinate Step in ANG or DEG, aJ/ANG or AJ/DEG ---
	 ---------------------------------------------------------------------------
	   Coordinate                Previous        Force       Change         New 
	   ----------                --------       ------       ------       ------
	    1 R(1,4)          =      1.069698     0.098531     0.012058     1.081756
	    2 R(2,4)          =      1.070683     0.096365     0.011809     1.082492
	    3 R(3,4)          =      1.069320     0.100848     0.012325     1.081646
	    4 R(4,7)          =      1.540645    -0.052431    -0.007607     1.533038
	    5 R(5,7)          =      1.070326     0.102073     0.012460     1.082786
	    6 R(6,7)          =      1.069761     0.108649     0.013244     1.083005
	    7 R(7,10)         =      1.540128    -0.074920    -0.010773     1.529355
	    8 R(8,10)         =      1.069698     0.105405     0.012851     1.082549
	    9 R(9,10)         =      1.069668     0.106142     0.012938     1.082606
	   10 R(10,14)        =      1.539422    -0.025235    -0.003605     1.535817
	   11 R(11,14)        =      1.069911     0.095192     0.011654     1.081565
	   12 R(12,14)        =      1.069832     0.097157     0.011941     1.081773
	   13 R(13,14)        =      1.069995     0.098718     0.012082     1.082078
	   14 B(1,4,2)        =    109.484805    -0.000254    -0.584707   108.900098
	   15 B(1,4,3)        =    109.499161    -0.000172    -0.455114   109.044047
	   16 B(1,4,7)        =    109.457783     0.000143     0.323499   109.781282
	   17 B(2,4,3)        =    109.437340    -0.000240    -0.552236   108.885104
	   18 B(2,4,7)        =    109.467262     0.000412     1.004142   110.471404
	   19 B(3,4,7)        =    109.480971     0.000112     0.249098   109.730069
	   20 B(4,7,5)        =    109.431343    -0.000106    -0.109971   109.321372
	   21 B(4,7,6)        =    109.528316    -0.000136    -0.189279   109.339038
	   22 B(4,7,10)       =    109.501062     0.000647     1.390037   110.891100
	   23 B(5,7,6)        =    109.469614     0.000013    -0.222130   109.247484
	   24 B(5,7,10)       =    109.437654    -0.000227    -0.490092   108.947562
	   25 B(6,7,10)       =    109.459295    -0.000192    -0.388638   109.070657
	   26 B(7,10,8)       =    109.452301    -0.000231    -0.480900   108.971401
	   27 B(7,10,9)       =    109.482155    -0.000226    -0.507391   108.974765
	   28 B(7,10,14)      =    109.504437     0.000670     1.442085   110.946522
	   29 B(8,10,9)       =    109.458846     0.000006    -0.256468   109.202378
	   30 B(8,10,14)      =    109.478806    -0.000123    -0.147157   109.331650
	   31 B(9,10,14)      =    109.450772    -0.000097    -0.062170   109.388602
	   32 B(10,14,11)     =    109.509347     0.000203     0.492296   110.001643
	   33 B(10,14,12)     =    109.490021     0.000135     0.281667   109.771688
	   34 B(10,14,13)     =    109.516525     0.000422     1.027398   110.543923
	   35 B(11,14,12)     =    109.479096    -0.000213    -0.551293   108.927803
	   36 B(11,14,13)     =    109.408124    -0.000276    -0.593879   108.814246
	   37 B(12,14,13)     =    109.424147    -0.000273    -0.678637   108.745510
	   38 D(1,4,7,5)      =    179.965873     0.000008     0.112281   180.078154
	   39 D(1,4,7,6)      =    -60.025575    -0.000022    -0.340898   -60.366473
	   40 D(1,4,7,10)     =     60.013132    -0.000004    -0.075195    59.937937
	   41 D(2,4,7,5)      =    -60.028143     0.000014     0.218877   -59.809266
	   42 D(2,4,7,6)      =     59.980409    -0.000016    -0.234302    59.746108
	   43 D(2,4,7,10)     =   -179.980883     0.000002     0.031401  -179.949482
	   44 D(3,4,7,5)      =     59.933911     0.000021     0.318058    60.251968
	   45 D(3,4,7,6)      =    179.942463    -0.000010    -0.135121   179.807341
	   46 D(3,4,7,10)     =    -60.018830     0.000008     0.130581   -59.888249
	   47 D(4,7,10,8)     =    -60.009777     0.000033     0.494437   -59.515340
	   48 D(4,7,10,9)     =     59.970178    -0.000029    -0.408657    59.561521
	   49 D(4,7,10,14)    =    179.972182     0.000006     0.087287   180.059468
	   50 D(5,7,10,8)     =   -179.958653     0.000004     0.080716  -179.877937
	   51 D(5,7,10,9)     =    -59.978698    -0.000058    -0.822378   -60.801076
	   52 D(5,7,10,14)    =     60.023306    -0.000023    -0.326434    59.696872
	   53 D(6,7,10,8)     =     60.071149     0.000059     0.877365    60.948514
	   54 D(6,7,10,9)     =   -179.948896    -0.000003    -0.025729  -179.974626
	   55 D(6,7,10,14)    =    -59.946893     0.000032     0.470215   -59.476678
	   56 D(7,10,14,11)   =     80.013039    -0.000019    -0.311901    79.701138
	   57 D(7,10,14,12)   =    -40.031513    -0.000007    -0.113228   -40.144741
	   58 D(7,10,14,13)   =   -160.013127    -0.000008    -0.092093  -160.105220
	   59 D(8,10,14,11)   =    -39.988783    -0.000031    -0.521326   -40.510109
	   60 D(8,10,14,12)   =   -160.033335    -0.000019    -0.322653  -160.355988
	   61 D(8,10,14,13)   =     79.985051    -0.000020    -0.301518    79.683533
	   62 D(9,10,14,11)   =   -159.965754    -0.000002    -0.080789  -160.046542
	   63 D(9,10,14,12)   =     79.989695     0.000010     0.117884    80.107579
	   64 D(9,10,14,13)   =    -39.991919     0.000009     0.139020   -39.852900
	 ---------------------------------------------------------------------------
	Successfully symmetrized geometry.
	 Forces used to impose fixed constraints are not included.
	  Forces zeroed: 58 

  ==> Convergence Check <==

  Measures of convergence in internal coordinates in au.
  Criteria marked as inactive (o), active & met (*), and active & unmet ( ).
  --------------------------------------------------------------------------------------------- ~
   Step     Total Energy     Delta E     MAX Force     RMS Force      MAX Disp      RMS Disp    ~
  --------------------------------------------------------------------------------------------- ~
    Convergence Criteria    1.00e-06 *    3.00e-04 *             o    1.20e-03 *             o  ~
  --------------------------------------------------------------------------------------------- ~
      1    -158.15570531   -1.58e+02      1.32e-02      5.61e-03 o    2.52e-02      1.25e-02 o  ~
  ---------------------------------------------------------------------------------------------

	Writing optimization data to binary file.
	Structure for next step:
	Cartesian Geometry (in Angstrom)
	    H    -2.3309876290   0.0589638461   0.3185942670
	    H    -2.1873895100   1.6988765459  -0.3064358760
	    H    -1.8879286558   0.3248158985  -1.3656724292
	    C    -1.7778290512   0.6981042538  -0.3564691801
	    H     0.2507901124   1.3479747765  -0.6453435014
	    H    -0.1920986720   1.0831804927   1.0434999376
	    C    -0.2953164433   0.7053571144   0.0337995673
	    H    -0.2535221156  -1.3477209006   0.6424221045
	    H     0.1900237964  -1.0803535729  -1.0447848438
	    C     0.2935965549  -0.7043927708  -0.0348532298
	    H     1.8766344235  -0.6696379177   1.4340371142
	    H     2.2647382419   0.1712712011  -0.0630628275
	    H     2.2726962049  -1.5868610272  -0.0141968185
	    C     1.7784853921  -0.6988208800   0.3573301261
			--------------------------
			 OPTKING Finished Execution 
			--------------------------

    Structure for next step:
    Molecular point group: c1
    Full point group: C1

    Geometry (in Angstrom), charge = 0, multiplicity = 1:

    H           -2.330819179741     0.058903824738     0.318650447146
    H           -2.187221060678     1.698816524498    -0.306379695794
    H           -1.887760206452     0.324755877101    -1.365616249030
    C           -1.777660601924     0.698044232418    -0.356412999864
    H            0.250958561678     1.347914755150    -0.645287321204
    H           -0.191930222647     1.083120471322     1.043556117797
    C           -0.295147993949     0.705297093013     0.033855747514
    H           -0.253353666327    -1.347780921944     0.642478284669
    H            0.190192245686    -1.080413594260    -1.044728663594
    C            0.293765004166    -0.704452792180    -0.034797049558
    H            1.876802872767    -0.669697939076     1.434093294436
    H            2.264906691160     0.171211179704    -0.063006647299
    H            2.272864654216    -1.586921048592    -0.014140638316
    C            1.778653841440    -0.698880901382     0.357386306331

gradient() will perform analytic gradient computation.

*** tstart() called on gpu-1-16.local
*** at Wed Jun 14 15:01:04 2017

    SCF Algorithm Type (re)set to DF.

*** tstart() called on gpu-1-16.local
*** at Wed Jun 14 15:01:04 2017

   => Loading Basis Set <=

    Name: AUG-CC-PVTZ
    Role: ORBITAL
    Keyword: BASIS
    atoms 1-3, 5-6, 8-9, 11-13 entry H          line    34 file /cbio/jclab/home/chayas/anaconda/envs/py35/share/psi4/basis/aug-cc-pvtz.gbs 
    atoms 4, 7, 10, 14         entry C          line   221 file /cbio/jclab/home/chayas/anaconda/envs/py35/share/psi4/basis/aug-cc-pvtz.gbs 


         ---------------------------------------------------------
                                   SCF
            by Justin Turney, Rob Parrish, and Andy Simmonett
                              RHF Reference
                        1 Threads,    953 MiB Core
         ---------------------------------------------------------

  ==> Geometry <==

    Molecular point group: c1
    Full point group: C1

    Geometry (in Angstrom), charge = 0, multiplicity = 1:

       Center              X                  Y                   Z               Mass       
    ------------   -----------------  -----------------  -----------------  -----------------
           H         -2.330819179741     0.058903824738     0.318650447146     1.007825032070
           H         -2.187221060678     1.698816524498    -0.306379695794     1.007825032070
           H         -1.887760206452     0.324755877101    -1.365616249030     1.007825032070
           C         -1.777660601924     0.698044232418    -0.356412999864    12.000000000000
           H          0.250958561678     1.347914755150    -0.645287321204     1.007825032070
           H         -0.191930222647     1.083120471322     1.043556117797     1.007825032070
           C         -0.295147993949     0.705297093013     0.033855747514    12.000000000000
           H         -0.253353666327    -1.347780921944     0.642478284669     1.007825032070
           H          0.190192245686    -1.080413594260    -1.044728663594     1.007825032070
           C          0.293765004166    -0.704452792180    -0.034797049558    12.000000000000
           H          1.876802872767    -0.669697939076     1.434093294436     1.007825032070
           H          2.264906691160     0.171211179704    -0.063006647299     1.007825032070
           H          2.272864654216    -1.586921048592    -0.014140638316     1.007825032070
           C          1.778653841440    -0.698880901382     0.357386306331    12.000000000000

  Running in c1 symmetry.

  Rotational constants: A =      0.77670  B =      0.12349  C =      0.11572 [cm^-1]
  Rotational constants: A =  23284.87592  B =   3702.21991  C =   3469.15904 [MHz]
  Nuclear repulsion =  131.416939511748637

  Charge       = 0
  Multiplicity = 1
  Electrons    = 34
  Nalpha       = 17
  Nbeta        = 17

  ==> Algorithm <==

  SCF Algorithm Type is DF.
  DIIS enabled.
  MOM disabled.
  Fractional occupation disabled.
  Guess Type is READ.
  Energy threshold   = 1.00e-10
  Density threshold  = 1.00e-10
  Integral threshold = 0.00e+00

  ==> Primary Basis <==

  Basis Set: AUG-CC-PVTZ
    Blend: AUG-CC-PVTZ
    Number of shells: 146
    Number of basis function: 414
    Number of Cartesian functions: 470
    Spherical Harmonics?: true
    Max angular momentum: 3

   => Loading Basis Set <=

    Name: (AUG-CC-PVTZ AUX)
    Role: JKFIT
    Keyword: DF_BASIS_SCF
    atoms 1-3, 5-6, 8-9, 11-13 entry H          line    69 file /cbio/jclab/home/chayas/anaconda/envs/py35/share/psi4/basis/aug-cc-pvtz-jkfit.gbs 
    atoms 4, 7, 10, 14         entry C          line   161 file /cbio/jclab/home/chayas/anaconda/envs/py35/share/psi4/basis/aug-cc-pvtz-jkfit.gbs 

  Reading orbitals from file 180, no projection.

  ==> Pre-Iterations <==

   -------------------------------------------------------
    Irrep   Nso     Nmo     Nalpha   Nbeta   Ndocc  Nsocc
   -------------------------------------------------------
     A        414     414       0       0       0       0
   -------------------------------------------------------
    Total     414     414      17      17      17       0
   -------------------------------------------------------

  ==> Integral Setup <==

  ==> DFJK: Density-Fitted J/K Matrices <==

    J tasked:                  Yes
    K tasked:                  Yes
    wK tasked:                  No
    OpenMP threads:              1
    Integrals threads:           1
    Memory (MB):               715
    Algorithm:                Core
    Integral Cache:           NONE
    Schwarz Cutoff:          1E-12
    Fitting Condition:       1E-12

   => Auxiliary Basis Set <=

  Basis Set: (AUG-CC-PVTZ AUX)
    Blend: AUG-CC-PVTZ-JKFIT
    Number of shells: 260
    Number of basis function: 876
    Number of Cartesian functions: 1074
    Spherical Harmonics?: true
    Max angular momentum: 4

  Minimum eigenvalue in the overlap matrix is 8.7042550467E-06.
  Using Symmetric Orthogonalization.

  SCF Guess: Orbitals guess was supplied from a previous computation.

  ==> Iterations <==

                           Total Energy        Delta E     RMS |[F,P]|

   @DF-RHF iter   0:  -157.27716141816202   -1.57277e+02   1.23814e-04 
   @DF-RHF iter   1:  -157.35377799013173   -7.66166e-02   5.14920e-05 
   @DF-RHF iter   2:  -157.35404839200390   -2.70402e-04   2.66499e-05 DIIS
   @DF-RHF iter   3:  -157.35410593209960   -5.75401e-05   2.85474e-06 DIIS
   @DF-RHF iter   4:  -157.35410737003775   -1.43794e-06   7.67641e-07 DIIS
   @DF-RHF iter   5:  -157.35410745751227   -8.74745e-08   2.55685e-07 DIIS
   @DF-RHF iter   6:  -157.35410746748329   -9.97102e-09   4.21521e-08 DIIS
   @DF-RHF iter   7:  -157.35410746788301   -3.99723e-10   6.12324e-09 DIIS
   @DF-RHF iter   8:  -157.35410746789390   -1.08855e-11   1.07815e-09 DIIS
   @DF-RHF iter   9:  -157.35410746789358    3.12639e-13   2.55683e-10 DIIS
   @DF-RHF iter  10:  -157.35410746789350    8.52651e-14   5.92794e-11 DIIS

  ==> Post-Iterations <==

    Orbital Energies (a.u.)
    -----------------------

    Doubly Occupied:                                                      

       1A    -11.210341     2A    -11.209665     3A    -11.203737  
       4A    -11.203523     5A     -1.071081     6A     -0.979679  
       7A     -0.860117     8A     -0.789344     9A     -0.645057  
      10A     -0.584715    11A     -0.572290    12A     -0.572190  
      13A     -0.512325    14A     -0.500180    15A     -0.469700  
      16A     -0.465270    17A     -0.449041  

    Virtual:                                                              

      18A      0.032287    19A      0.037084    20A      0.039591  
      21A      0.040804    22A      0.057001    23A      0.058489  
      24A      0.059728    25A      0.061240    26A      0.081784  
      27A      0.083271    28A      0.098505    29A      0.112392  
      30A      0.123047    31A      0.130788    32A      0.136003  
      33A      0.141696    34A      0.143271    35A      0.146326  
      36A      0.148281    37A      0.159793    38A      0.161319  
      39A      0.167594    40A      0.170937    41A      0.202047  
      42A      0.209196    43A      0.211620    44A      0.229034  
      45A      0.246073    46A      0.248755    47A      0.251104  
      48A      0.268399    49A      0.274657    50A      0.281764  
      51A      0.283514    52A      0.315640    53A      0.318161  
      54A      0.330445    55A      0.336017    56A      0.341903  
      57A      0.349989    58A      0.357243    59A      0.357314  
      60A      0.361291    61A      0.373176    62A      0.373887  
      63A      0.383047    64A      0.386440    65A      0.389615  
      66A      0.391484    67A      0.396329    68A      0.401778  
      69A      0.405217    70A      0.412794    71A      0.421979  
      72A      0.428598    73A      0.441539    74A      0.446656  
      75A      0.452955    76A      0.459569    77A      0.462211  
      78A      0.463868    79A      0.472679    80A      0.479289  
      81A      0.485987    82A      0.492547    83A      0.499297  
      84A      0.503110    85A      0.507054    86A      0.512086  
      87A      0.519960    88A      0.532571    89A      0.533938  
      90A      0.537016    91A      0.546129    92A      0.560873  
      93A      0.567023    94A      0.571996    95A      0.586660  
      96A      0.591395    97A      0.602155    98A      0.610059  
      99A      0.622082   100A      0.629933   101A      0.638973  
     102A      0.659933   103A      0.678323   104A      0.683214  
     105A      0.701266   106A      0.709366   107A      0.762615  
     108A      0.779017   109A      0.796581   110A      0.813356  
     111A      0.822123   112A      0.827534   113A      0.834926  
     114A      0.843263   115A      0.848325   116A      0.858954  
     117A      0.864065   118A      0.866685   119A      0.884082  
     120A      0.890740   121A      0.895022   122A      0.900921  
     123A      0.904720   124A      0.919521   125A      0.924044  
     126A      0.929815   127A      0.935670   128A      0.941476  
     129A      0.942174   130A      0.957667   131A      0.964401  
     132A      0.970594   133A      0.977063   134A      0.985277  
     135A      0.993776   136A      1.013796   137A      1.018332  
     138A      1.033858   139A      1.047790   140A      1.064304  
     141A      1.071448   142A      1.078684   143A      1.091685  
     144A      1.108220   145A      1.110896   146A      1.121651  
     147A      1.128438   148A      1.130962   149A      1.140889  
     150A      1.155477   151A      1.160503   152A      1.162813  
     153A      1.173555   154A      1.190257   155A      1.196989  
     156A      1.217547   157A      1.220823   158A      1.229702  
     159A      1.243726   160A      1.252758   161A      1.257919  
     162A      1.261458   163A      1.270668   164A      1.277202  
     165A      1.291795   166A      1.299328   167A      1.315999  
     168A      1.323150   169A      1.338933   170A      1.349565  
     171A      1.357285   172A      1.384769   173A      1.397646  
     174A      1.419550   175A      1.427715   176A      1.438216  
     177A      1.458089   178A      1.480083   179A      1.497097  
     180A      1.503515   181A      1.517935   182A      1.524419  
     183A      1.551080   184A      1.558103   185A      1.561487  
     186A      1.587273   187A      1.591252   188A      1.614356  
     189A      1.627366   190A      1.639568   191A      1.645399  
     192A      1.649291   193A      1.673697   194A      1.690535  
     195A      1.692209   196A      1.699771   197A      1.709172  
     198A      1.717224   199A      1.731302   200A      1.740109  
     201A      1.745979   202A      1.758680   203A      1.765507  
     204A      1.773566   205A      1.782567   206A      1.792434  
     207A      1.794341   208A      1.805160   209A      1.818351  
     210A      1.843052   211A      1.862353   212A      1.866762  
     213A      1.885234   214A      1.900251   215A      1.912140  
     216A      1.922229   217A      1.953415   218A      1.970145  
     219A      1.978132   220A      1.987775   221A      1.992629  
     222A      2.003537   223A      2.028744   224A      2.035517  
     225A      2.041293   226A      2.061820   227A      2.088079  
     228A      2.098289   229A      2.118649   230A      2.141053  
     231A      2.156002   232A      2.183705   233A      2.192337  
     234A      2.208712   235A      2.237731   236A      2.249130  
     237A      2.258749   238A      2.273908   239A      2.294808  
     240A      2.299866   241A      2.325956   242A      2.328406  
     243A      2.339829   244A      2.346129   245A      2.363158  
     246A      2.371237   247A      2.420688   248A      2.441107  
     249A      2.467814   250A      2.478899   251A      2.508318  
     252A      2.544001   253A      2.603666   254A      2.618709  
     255A      2.640393   256A      2.661671   257A      2.729197  
     258A      2.897759   259A      2.933804   260A      3.026902  
     261A      3.239991   262A      3.245567   263A      3.293400  
     264A      3.379524   265A      3.396299   266A      3.425873  
     267A      3.451870   268A      3.459099   269A      3.465944  
     270A      3.484626   271A      3.521454   272A      3.542517  
     273A      3.570875   274A      3.578420   275A      3.599967  
     276A      3.607247   277A      3.635884   278A      3.658428  
     279A      3.679697   280A      3.686236   281A      3.712998  
     282A      3.722639   283A      3.730995   284A      3.743586  
     285A      3.753154   286A      3.767734   287A      3.779611  
     288A      3.797506   289A      3.809586   290A      3.820725  
     291A      3.847828   292A      3.857842   293A      3.875871  
     294A      3.882805   295A      3.911729   296A      3.921566  
     297A      3.940418   298A      3.948320   299A      3.970867  
     300A      3.987825   301A      3.997532   302A      4.006073  
     303A      4.013559   304A      4.014040   305A      4.044495  
     306A      4.050568   307A      4.062174   308A      4.077345  
     309A      4.123571   310A      4.178162   311A      4.191783  
     312A      4.206209   313A      4.221263   314A      4.226235  
     315A      4.237351   316A      4.264398   317A      4.265459  
     318A      4.280198   319A      4.298882   320A      4.320476  
     321A      4.330937   322A      4.364552   323A      4.369660  
     324A      4.399519   325A      4.416706   326A      4.422415  
     327A      4.514194   328A      4.531768   329A      4.565846  
     330A      4.575230   331A      4.618104   332A      4.649823  
     333A      4.665514   334A      4.681887   335A      4.705188  
     336A      4.719054   337A      4.724538   338A      4.736125  
     339A      4.763632   340A      4.776465   341A      4.787599  
     342A      4.837281   343A      4.853246   344A      4.867958  
     345A      4.873928   346A      4.899942   347A      4.927781  
     348A      4.939584   349A      4.952417   350A      4.998008  
     351A      5.027317   352A      5.046021   353A      5.063418  
     354A      5.079124   355A      5.107674   356A      5.153606  
     357A      5.162073   358A      5.179870   359A      5.189069  
     360A      5.227328   361A      5.229804   362A      5.248630  
     363A      5.251869   364A      5.288440   365A      5.297077  
     366A      5.326582   367A      5.372073   368A      5.386770  
     369A      5.415171   370A      5.431435   371A      5.435415  
     372A      5.453640   373A      5.470621   374A      5.489016  
     375A      5.554384   376A      5.569732   377A      5.600754  
     378A      5.614324   379A      5.652627   380A      5.656162  
     381A      5.694708   382A      5.732981   383A      5.738039  
     384A      5.751266   385A      5.812558   386A      5.815637  
     387A      5.871102   388A      5.881893   389A      5.922813  
     390A      5.996482   391A      6.064823   392A      6.127403  
     393A      6.136436   394A      6.160775   395A      6.204842  
     396A      6.225270   397A      6.232149   398A      6.270671  
     399A      6.279378   400A      6.324688   401A      6.367985  
     402A      6.404535   403A      6.550139   404A      6.561525  
     405A      6.735994   406A      6.779065   407A      6.827241  
     408A      6.843485   409A      6.854503   410A      6.987125  
     411A     17.975038   412A     18.188315   413A     18.502918  
     414A     18.845033  

    Final Occupation by Irrep:
              A 
    DOCC [    17 ]

  Energy converged.

  @DF-RHF Final Energy:  -157.35410746789350

   => Energetics <=

    Nuclear Repulsion Energy =            131.4169395117486374
    One-Electron Energy =                -470.9455831767430709
    Two-Electron Energy =                 182.1745361971009345
    DFT Exchange-Correlation Energy =       0.0000000000000000
    Empirical Dispersion Energy =           0.0000000000000000
    PCM Polarization Energy =               0.0000000000000000
    EFP Energy =                            0.0000000000000000
    Total Energy =                       -157.3541074678934990



Properties will be evaluated at   0.000000,   0.000000,   0.000000 Bohr

Properties computed using the SCF density matrix

  Nuclear Dipole Moment: (a.u.)
     X:     0.0044      Y:    -0.0001      Z:    -0.0004

  Electronic Dipole Moment: (a.u.)
     X:    -0.0049      Y:     0.0000      Z:     0.0014

  Dipole Moment: (a.u.)
     X:    -0.0005      Y:    -0.0001      Z:     0.0011     Total:     0.0012

  Dipole Moment: (Debye)
     X:    -0.0014      Y:    -0.0002      Z:     0.0027     Total:     0.0030


*** tstop() called on gpu-1-16.local at Wed Jun 14 15:02:04 2017
Module time:
	user time   =      59.45 seconds =       0.99 minutes
	system time =       0.52 seconds =       0.01 minutes
	total time  =         60 seconds =       1.00 minutes
Total time:
	user time   =     504.06 seconds =       8.40 minutes
	system time =       8.36 seconds =       0.14 minutes
	total time  =        514 seconds =       8.57 minutes

  //>>>>>>>>>>>>>>>>>>>>>>>>>>>>>>>>>>>//
  //               DFMP2               //
  //<<<<<<<<<<<<<<<<<<<<<<<<<<<<<<<<<<<//

   => Loading Basis Set <=

    Name: (AUG-CC-PVTZ AUX)
    Role: RIFIT
    Keyword: DF_BASIS_MP2
    atoms 1-3, 5-6, 8-9, 11-13 entry H          line    29 file /cbio/jclab/home/chayas/anaconda/envs/py35/share/psi4/basis/aug-cc-pvtz-ri.gbs 
    atoms 4, 7, 10, 14         entry C          line   147 file /cbio/jclab/home/chayas/anaconda/envs/py35/share/psi4/basis/aug-cc-pvtz-ri.gbs 

	 --------------------------------------------------------
	                          DF-MP2                         
	      2nd-Order Density-Fitted Moller-Plesset Theory     
	              RMP2 Wavefunction,   1 Threads             
	                                                         
	        Rob Parrish, Justin Turney, Andy Simmonett,      
	           Ed Hohenstein, and C. David Sherrill          
	 --------------------------------------------------------

   => Auxiliary Basis Set <=

  Basis Set: (AUG-CC-PVTZ AUX)
    Blend: AUG-CC-PVTZ-RI
    Number of shells: 252
    Number of basis function: 884
    Number of Cartesian functions: 1094
    Spherical Harmonics?: true
    Max angular momentum: 4

	 --------------------------------------------------------
	                 NBF =   414, NAUX =   884
	 --------------------------------------------------------
	   CLASS    FOCC     OCC    AOCC    AVIR     VIR    FVIR
	   PAIRS       0      17      17     397     397       0
	 --------------------------------------------------------


         ------------------------------------------------------------
                                     CPHF                           
                                  Rob Parrish                       
         ------------------------------------------------------------

  ==> Geometry <==

    Molecular point group: c1
    Full point group: C1

    Geometry (in Angstrom), charge = 0, multiplicity = 1:

       Center              X                  Y                   Z               Mass       
    ------------   -----------------  -----------------  -----------------  -----------------
           H         -2.330819179741     0.058903824738     0.318650447146     1.007825032070
           H         -2.187221060678     1.698816524498    -0.306379695794     1.007825032070
           H         -1.887760206452     0.324755877101    -1.365616249030     1.007825032070
           C         -1.777660601924     0.698044232418    -0.356412999864    12.000000000000
           H          0.250958561678     1.347914755150    -0.645287321204     1.007825032070
           H         -0.191930222647     1.083120471322     1.043556117797     1.007825032070
           C         -0.295147993949     0.705297093013     0.033855747514    12.000000000000
           H         -0.253353666327    -1.347780921944     0.642478284669     1.007825032070
           H          0.190192245686    -1.080413594260    -1.044728663594     1.007825032070
           C          0.293765004166    -0.704452792180    -0.034797049558    12.000000000000
           H          1.876802872767    -0.669697939076     1.434093294436     1.007825032070
           H          2.264906691160     0.171211179704    -0.063006647299     1.007825032070
           H          2.272864654216    -1.586921048592    -0.014140638316     1.007825032070
           C          1.778653841440    -0.698880901382     0.357386306331    12.000000000000

  Nuclear repulsion =  131.416939511748637
  Reference energy  = -157.354107467893499

  ==> Basis Set <==

  Basis Set: AUG-CC-PVTZ
    Blend: AUG-CC-PVTZ
    Number of shells: 146
    Number of basis function: 414
    Number of Cartesian functions: 470
    Spherical Harmonics?: true
    Max angular momentum: 3

  ==> CGRSolver (by Rob Parrish) <==

   Number of roots    =         1
   Preconditioning    =    JACOBI
   Convergence cutoff =     1E-06
   Maximum iterations =       100

  ==> CPHFRHamiltonian (by Rob Parrish) <== 

  ==> DFJK: Density-Fitted J/K Matrices <==

    J tasked:                  Yes
    K tasked:                  Yes
    wK tasked:                  No
    OpenMP threads:              1
    Integrals threads:           1
    Memory (MB):               715
    Algorithm:                Core
    Integral Cache:           NONE
    Schwarz Cutoff:          1E-12
    Fitting Condition:       1E-12

   => Auxiliary Basis Set <=

  Basis Set: (AUG-CC-PVTZ AUX)
    Blend: AUG-CC-PVTZ-JKFIT
    Number of shells: 260
    Number of basis function: 876
    Number of Cartesian functions: 1074
    Spherical Harmonics?: true
    Max angular momentum: 4

  ==> CPHF Iterations <==

  => Iterations <=

             Iter  Converged  Remaining    Residual
  CGR           1          0          1   8.304E-02
  CGR           2          0          1   1.324E-02
  CGR           3          0          1   3.489E-03
  CGR           4          0          1   8.146E-04
  CGR           5          0          1   1.201E-04
  CGR           6          0          1   2.187E-05
  CGR           7          0          1   3.810E-06
  CGR           8          1          0   8.540E-07

    CGRSolver converged.

  ==> DFCorrGrad: Density-Fitted Correlated Gradients <==

    OpenMP threads:              1
    Integrals threads:           1
    Memory (MB):               715
    Schwarz Cutoff:          0E+00
    Fitting Condition:       1E-12

   => Auxiliary Basis Set <=

  Basis Set: (AUG-CC-PVTZ AUX)
    Blend: AUG-CC-PVTZ-JKFIT
    Number of shells: 260
    Number of basis function: 876
    Number of Cartesian functions: 1074
    Spherical Harmonics?: true
    Max angular momentum: 4

	-----------------------------------------------------------
	 ==================> DF-MP2 Energies <==================== 
	-----------------------------------------------------------
	 Reference Energy          =    -157.3541074678934990 [Eh]
	 Singles Energy            =      -0.0000000000000000 [Eh]
	 Same-Spin Energy          =      -0.1653448001303895 [Eh]
	 Opposite-Spin Energy      =      -0.6392922971829761 [Eh]
	 Correlation Energy        =      -0.8046370973133656 [Eh]
	 Total Energy              =    -158.1587445652068595 [Eh]
	-----------------------------------------------------------
	 ================> DF-SCS-MP2 Energies <================== 
	-----------------------------------------------------------
	 SCS Same-Spin Scale       =       0.3333333333333333 [-]
	 SCS Opposite-Spin Scale   =       1.2000000000000000 [-]
	 SCS Same-Spin Energy      =      -0.0551149333767965 [Eh]
	 SCS Opposite-Spin Energy  =      -0.7671507566195713 [Eh]
	 SCS Correlation Energy    =      -0.8222656899963678 [Eh]
	 SCS Total Energy          =    -158.1763731578898557 [Eh]
	-----------------------------------------------------------


  -Total Gradient:
     Atom            X                  Y                   Z
    ------   -----------------  -----------------  -----------------
       1        0.003476443652     0.002128834153    -0.001284568884
       2        0.003314168222    -0.002219120431     0.000500412255
       3        0.002175634380     0.001494979363     0.003431207795
       4       -0.013575792432    -0.003712947164    -0.004459455726
       5       -0.003344372989    -0.003738784978     0.000472113042
       6       -0.002558795693    -0.003595184826    -0.003144643815
       7        0.013131079897     0.015933940271     0.004856545027
       8        0.003474722619     0.004541049558     0.000265155032
       9        0.002568227395     0.002660268611     0.003357447483
      10       -0.012537440278    -0.015850214184    -0.005001276146
      11       -0.002329482173    -0.001353467245    -0.003351271608
      12       -0.003425088640    -0.002303214999     0.001248673111
      13       -0.003340009850     0.002574144375    -0.000757196770
      14        0.012970705894     0.003439717497     0.003866859201


*** tstop() called on gpu-1-16.local at Wed Jun 14 15:07:01 2017
Module time:
	user time   =     352.35 seconds =       5.87 minutes
	system time =       5.27 seconds =       0.09 minutes
	total time  =        357 seconds =       5.95 minutes
Total time:
	user time   =     796.96 seconds =      13.28 minutes
	system time =      13.11 seconds =       0.22 minutes
	total time  =        811 seconds =      13.52 minutes

			-----------------------------------------
			 OPTKING 2.0: for geometry optimizations 
			  - R.A. King,  Bethel University        
			-----------------------------------------

	Previous internal coordinate definitions found.
	---Fragment 1 Geometry and Gradient---
	 H          -4.4046099150        0.1113120969        0.6021620772
	 H          -4.1332487968        3.2102979813       -0.5789737177
	 H          -3.5673497948        0.6136996678       -2.5806407133
	 C          -3.3592916949        1.3191124279       -0.6735229599
	 H           0.4742429523        2.5471897377       -1.2194163141
	 H          -0.3626955574        2.0468010597        1.9720352669
	 C          -0.5577488772        1.3328183481        0.0639780908
	 H          -0.4787690441       -2.5469368296        1.2141080044
	 H           0.3594112569       -2.0416858034       -1.9742510574
	 C           0.5551354053       -1.3312228508       -0.0657568939
	 H           3.5466434349       -1.2655456966        2.7100435755
	 H           4.2800533628        0.3235422405       -0.1190653079
	 H           4.2950917336       -2.9988461764       -0.0267219338
	 C           3.3611686455       -1.3206935031        0.6753622426
	             0.0034764437        0.0021288342       -0.0012845689
	             0.0033141682       -0.0022191204        0.0005004123
	             0.0021756344        0.0014949794        0.0034312078
	            -0.0135757924       -0.0037129472       -0.0044594557
	            -0.0033443730       -0.0037387850        0.0004721130
	            -0.0025587957       -0.0035951848       -0.0031446438
	             0.0131310799        0.0159339403        0.0048565450
	             0.0034747226        0.0045410496        0.0002651550
	             0.0025682274        0.0026602686        0.0033574475
	            -0.0125374403       -0.0158502142       -0.0050012761
	            -0.0023294822       -0.0013534672       -0.0033512716
	            -0.0034250886       -0.0023032150        0.0012486731
	            -0.0033400099        0.0025741444       -0.0007571968
	             0.0129707059        0.0034397175        0.0038668592

	---Fragment 1 Intrafragment Coordinates---
	 - Coordinate -           - BOHR/RAD -       - ANG/DEG -
	 R(1,4)           =         2.044222	       1.081756
	 R(2,4)           =         2.045613	       1.082492
	 R(3,4)           =         2.044014	       1.081646
	 R(4,7)           =         2.897022	       1.533038
	 R(5,7)           =         2.046169	       1.082786
	 R(6,7)           =         2.046582	       1.083005
	 R(7,10)          =         2.890062	       1.529355
	 R(8,10)          =         2.045721	       1.082549
	 R(9,10)          =         2.045829	       1.082606
	 R(10,14)         =         2.902273	       1.535817
	 R(11,14)         =         2.043862	       1.081565
	 R(12,14)         =         2.044254	       1.081773
	 R(13,14)         =         2.044830	       1.082078
	 B(1,4,2)         =         1.900665	     108.900098
	 B(1,4,3)         =         1.903178	     109.044047
	 B(1,4,7)         =         1.916045	     109.781282
	 B(2,4,3)         =         1.900404	     108.885104
	 B(2,4,7)         =         1.928090	     110.471404
	 B(3,4,7)         =         1.915151	     109.730069
	 B(4,7,5)         =         1.908018	     109.321372
	 B(4,7,6)         =         1.908326	     109.339038
	 B(4,7,10)        =         1.935415	     110.891100
	 B(5,7,6)         =         1.906728	     109.247484
	 B(5,7,10)        =         1.901494	     108.947562
	 B(6,7,10)        =         1.903642	     109.070657
	 B(7,10,8)        =         1.901910	     108.971401
	 B(7,10,9)        =         1.901968	     108.974765
	 B(7,10,14)       =         1.936382	     110.946522
	 B(8,10,9)        =         1.905941	     109.202378
	 B(8,10,14)       =         1.908197	     109.331650
	 B(9,10,14)       =         1.909191	     109.388602
	 B(10,14,11)      =         1.919891	     110.001643
	 B(10,14,12)      =         1.915877	     109.771688
	 B(10,14,13)      =         1.929355	     110.543923
	 B(11,14,12)      =         1.901149	     108.927803
	 B(11,14,13)      =         1.899167	     108.814246
	 B(12,14,13)      =         1.897967	     108.745510
	 D(1,4,7,5)       =        -3.140229	    -179.921846
	 D(1,4,7,6)       =        -1.053594	     -60.366473
	 D(1,4,7,10)      =         1.046114	      59.937937
	 D(2,4,7,5)       =        -1.043869	     -59.809266
	 D(2,4,7,6)       =         1.042766	      59.746108
	 D(2,4,7,10)      =        -3.140711	    -179.949482
	 D(3,4,7,5)       =         1.051595	      60.251968
	 D(3,4,7,6)       =         3.138230	     179.807341
	 D(3,4,7,10)      =        -1.045247	     -59.888249
	 D(4,7,10,8)      =        -1.038739	     -59.515340
	 D(4,7,10,9)      =         1.039545	      59.561521
	 D(4,7,10,14)     =        -3.140555	    -179.940532
	 D(5,7,10,8)      =        -3.139462	    -179.877937
	 D(5,7,10,9)      =        -1.061179	     -60.801076
	 D(5,7,10,14)     =         1.041907	      59.696872
	 D(6,7,10,8)      =         1.063752	      60.948514
	 D(6,7,10,9)      =        -3.141150	    -179.974626
	 D(6,7,10,14)     =        -1.038064	     -59.476678
	 D(7,10,14,11)    =         1.391047	      79.701138
	 D(7,10,14,12)    =        -0.700658	     -40.144741
	 D(7,10,14,13)    =        -2.794363	    -160.105220
	 D(8,10,14,11)    =        -0.707035	     -40.510109
	 D(8,10,14,12)    =        -2.798740	    -160.355988
	 D(8,10,14,13)    =         1.390740	      79.683533
	 D(9,10,14,11)    =        -2.793339	    -160.046542
	 D(9,10,14,12)    =         1.398141	      80.107579
	 D(9,10,14,13)    =        -0.695564	     -39.852900

	Current energy   :      -158.1587445652

	Energy change for the previous step:
		Projected    :        -0.0039317178
		Actual       :        -0.0030392590

	Performing BFGS update.
	Previous computed or guess Hessian on step 1.
	Steps to be used in Hessian update: 1
	Adding user-defined constraint: Fragment 1; Coordinate 58:
		Value =    -2.794363; Fixed value    =    -2.792530
		Force =     0.000962; Force constant =     0.525000
	Removing off-diagonal coupling between coordinate 58 and others.
	Taking RFO optimization step.
	Going to follow RFO solution 1.
	Using RFO vector 1.

	Determining step-restricting scale parameter for RS-RFO.
	Maximum step size allowed    0.10000

	 Iter      |step|        alpha        rfo_root  
	------------------------------------------------
	    0     0.18057       1.00000           1
	    1     0.14537       4.83749           1
	    2     0.11762      13.80183           1
	    3     0.10385      22.47646           1
	    4     0.10025      25.54429           1
	    5     0.10000      25.77209           1
	------------------------------------------------
	Norm of target step-size    0.10000
	Projected energy change by RFO approximation:        -0.0014485298

	Back-transformation to cartesian coordinates...
	Successfully converged to displaced geometry.

	--- Internal Coordinate Step in ANG or DEG, aJ/ANG or AJ/DEG ---
	 ---------------------------------------------------------------------------
	   Coordinate                Previous        Force       Change         New 
	   ----------                --------       ------       ------       ------
	    1 R(1,4)          =      1.081756     0.031613     0.005839     1.087594
	    2 R(2,4)          =      1.082492     0.027043     0.004772     1.087264
	    3 R(3,4)          =      1.081646     0.032451     0.005991     1.087637
	    4 R(4,7)          =      1.533038    -0.040616    -0.010855     1.522183
	    5 R(5,7)          =      1.082786     0.034617     0.006481     1.089267
	    6 R(6,7)          =      1.083005     0.036497     0.006806     1.089810
	    7 R(7,10)         =      1.529355    -0.039613    -0.009775     1.519580
	    8 R(8,10)         =      1.082549     0.035335     0.006587     1.089135
	    9 R(9,10)         =      1.082606     0.035440     0.006597     1.089203
	   10 R(10,14)        =      1.535817    -0.033064    -0.009337     1.526480
	   11 R(11,14)        =      1.081565     0.029529     0.005397     1.086962
	   12 R(12,14)        =      1.081773     0.031944     0.005972     1.087745
	   13 R(13,14)        =      1.082078     0.027831     0.004917     1.086994
	   14 B(1,4,2)        =    108.900098    -0.000158    -0.670617   108.229481
	   15 B(1,4,3)        =    109.044047    -0.000153    -0.802924   108.241123
	   16 B(1,4,7)        =    109.781282     0.000130     0.621443   110.402725
	   17 B(2,4,3)        =    108.885104    -0.000151    -0.647188   108.237916
	   18 B(2,4,7)        =    110.471404     0.000204     0.853216   111.324620
	   19 B(3,4,7)        =    109.730069     0.000118     0.579696   110.309765
	   20 B(4,7,5)        =    109.321372    -0.000017     0.168284   109.489655
	   21 B(4,7,6)        =    109.339038    -0.000033     0.097701   109.436738
	   22 B(4,7,10)       =    110.891100     0.000268     1.086285   111.977385
	   23 B(5,7,6)        =    109.247484    -0.000078    -1.117491   108.129992
	   24 B(5,7,10)       =    108.947562    -0.000083    -0.206137   108.741425
	   25 B(6,7,10)       =    109.070657    -0.000062    -0.086808   108.983849
	   26 B(7,10,8)       =    108.971401    -0.000073    -0.064610   108.906791
	   27 B(7,10,9)       =    108.974765    -0.000086    -0.285865   108.688900
	   28 B(7,10,14)      =    110.946522     0.000275     1.108908   112.055430
	   29 B(8,10,9)       =    109.202378    -0.000083    -1.154566   108.047812
	   30 B(8,10,14)      =    109.331650    -0.000026     0.160790   109.492439
	   31 B(9,10,14)      =    109.388602    -0.000011     0.171851   109.560454
	   32 B(10,14,11)     =    110.001643     0.000153     0.766395   110.768037
	   33 B(10,14,12)     =    109.771688     0.000110     0.443042   110.214730
	   34 B(10,14,13)     =    110.543923     0.000206     0.857780   111.401704
	   35 B(11,14,12)     =    108.927803    -0.000160    -0.808082   108.119722
	   36 B(11,14,13)     =    108.814246    -0.000150    -0.479917   108.334329
	   37 B(12,14,13)     =    108.745510    -0.000171    -0.856546   107.888964
	   38 D(1,4,7,5)      =   -179.921846     0.000010     0.474254  -179.447592
	   39 D(1,4,7,6)      =    -60.366473    -0.000019    -0.726683   -61.093155
	   40 D(1,4,7,10)     =     59.937937    -0.000003    -0.073560    59.864378
	   41 D(2,4,7,5)      =    -59.809266     0.000014     0.593125   -59.216141
	   42 D(2,4,7,6)      =     59.746108    -0.000015    -0.607811    59.138296
	   43 D(2,4,7,10)     =   -179.949482     0.000001     0.045312  -179.904171
	   44 D(3,4,7,5)      =     60.251968     0.000018     0.711888    60.963856
	   45 D(3,4,7,6)      =    179.807341    -0.000011    -0.489049   179.318293
	   46 D(3,4,7,10)     =    -59.888249     0.000005     0.164075   -59.724174
[...]
  CGR           3          0          1   3.547E-03
  CGR           4          0          1   8.173E-04
  CGR           5          0          1   1.201E-04
  CGR           6          0          1   2.241E-05
  CGR           7          0          1   4.002E-06
  CGR           8          1          0   9.339E-07

    CGRSolver converged.

  ==> DFCorrGrad: Density-Fitted Correlated Gradients <==

    OpenMP threads:              1
    Integrals threads:           1
    Memory (MB):               715
    Schwarz Cutoff:          0E+00
    Fitting Condition:       1E-12

   => Auxiliary Basis Set <=

  Basis Set: (AUG-CC-PVTZ AUX)
    Blend: AUG-CC-PVTZ-JKFIT
    Number of shells: 260
    Number of basis function: 876
    Number of Cartesian functions: 1074
    Spherical Harmonics?: true
    Max angular momentum: 4

	-----------------------------------------------------------
	 ==================> DF-MP2 Energies <==================== 
	-----------------------------------------------------------
	 Reference Energy          =    -157.3552493481107035 [Eh]
	 Singles Energy            =      -0.0000000000000000 [Eh]
	 Same-Spin Energy          =      -0.1654641459484195 [Eh]
	 Opposite-Spin Energy      =      -0.6393292090343116 [Eh]
	 Correlation Energy        =      -0.8047933549827311 [Eh]
	 Total Energy              =    -158.1600427030934384 [Eh]
	-----------------------------------------------------------
	 ================> DF-SCS-MP2 Energies <================== 
	-----------------------------------------------------------
	 SCS Same-Spin Scale       =       0.3333333333333333 [-]
	 SCS Opposite-Spin Scale   =       1.2000000000000000 [-]
	 SCS Same-Spin Energy      =      -0.0551547153161398 [Eh]
	 SCS Opposite-Spin Energy  =      -0.7671950508411739 [Eh]
	 SCS Correlation Energy    =      -0.8223497661573137 [Eh]
	 SCS Total Energy          =    -158.1775991142680198 [Eh]
	-----------------------------------------------------------


  -Total Gradient:
     Atom            X                  Y                   Z
    ------   -----------------  -----------------  -----------------
       1        0.000007211035     0.000003243054    -0.000001332063
       2       -0.000007890199    -0.000005469998    -0.000003902466
       3       -0.000013257227     0.000001625321     0.000010091160
       4        0.000023181276     0.000008812438    -0.000030262316
       5       -0.000013314731     0.000000140057     0.000016511015
       6        0.000013702458    -0.000000473554    -0.000004535094
       7        0.000506745588     0.000318555734    -0.001871490481
       8       -0.000005091365     0.000005421273    -0.000001159053
       9       -0.000000028889    -0.000005769094     0.000027656191
      10       -0.000534383689    -0.000098310446     0.001988349871
      11       -0.000006284744    -0.000008508972    -0.000002561460
      12       -0.000001332978    -0.000020111758     0.000017626074
      13        0.000662697203     0.001327282632    -0.002315531519
      14       -0.000631953739    -0.001526436687     0.002170540141


*** tstop() called on gpu-1-16.local at Wed Jun 14 15:27:38 2017
Module time:
	user time   =     306.61 seconds =       5.11 minutes
	system time =       4.74 seconds =       0.08 minutes
	total time  =        312 seconds =       5.20 minutes
Total time:
	user time   =    2010.50 seconds =      33.51 minutes
	system time =      35.28 seconds =       0.59 minutes
	total time  =       2048 seconds =      34.13 minutes

			-----------------------------------------
			 OPTKING 2.0: for geometry optimizations 
			  - R.A. King,  Bethel University        
			-----------------------------------------

	Previous internal coordinate definitions found.
	---Fragment 1 Geometry and Gradient---
	 H          -4.4321023783        0.1521721790        0.6431206165
	 H          -4.1406820977        3.2287423066       -0.5861155630
	 H          -3.6335877334        0.5936150570       -2.5509803745
	 C          -3.3532419789        1.3316532299       -0.6513033604
	 H           0.4725145467        2.5517537288       -1.2363049449
	 H          -0.3191598438        2.0843136655        1.9369332827
	 C          -0.5715795804        1.3147465503        0.0399318788
	 H          -0.5064710852       -2.5896986394        1.1191363459
	 H           0.3886890273       -2.0143021126       -2.0049270606
	 C           0.5778766419       -1.3084397128       -0.0769007191
	 H           3.5576693073       -1.2442131118        2.7339679940
	 H           4.3234245214        0.2830385961       -0.1111656578
	 H           4.3093739991       -3.0195701804        0.0059030889
	 C           3.3452930700       -1.3401312156        0.6925077763
	             0.0000072110        0.0000032431       -0.0000013321
	            -0.0000078902       -0.0000054700       -0.0000039025
	            -0.0000132572        0.0000016253        0.0000100912
	             0.0000231813        0.0000088124       -0.0000302623
	            -0.0000133147        0.0000001401        0.0000165110
	             0.0000137025       -0.0000004736       -0.0000045351
	             0.0005067456        0.0003185557       -0.0018714905
	            -0.0000050914        0.0000054213       -0.0000011591
	            -0.0000000289       -0.0000057691        0.0000276562
	            -0.0005343837       -0.0000983104        0.0019883499
	            -0.0000062847       -0.0000085090       -0.0000025615
	            -0.0000013330       -0.0000201118        0.0000176261
	             0.0006626972        0.0013272826       -0.0023155315
	            -0.0006319537       -0.0015264367        0.0021705401

	---Fragment 1 Intrafragment Coordinates---
	 - Coordinate -           - BOHR/RAD -       - ANG/DEG -
	 R(1,4)           =         2.056854	       1.088440
	 R(2,4)           =         2.055057	       1.087489
	 R(3,4)           =         2.057199	       1.088623
	 R(4,7)           =         2.866311	       1.516786
	 R(5,7)           =         2.061334	       1.090811
	 R(6,7)           =         2.062659	       1.091512
	 R(7,10)          =         2.866358	       1.516811
	 R(8,10)          =         2.061053	       1.090662
	 R(9,10)          =         2.061873	       1.091096
	 R(10,14)         =         2.872558	       1.520092
	 R(11,14)         =         2.054717	       1.087310
	 R(12,14)         =         2.058473	       1.089297
	 R(13,14)         =         2.054603	       1.087249
	 B(1,4,2)         =         1.884324	     107.963831
	 B(1,4,3)         =         1.879610	     107.693730
	 B(1,4,7)         =         1.932513	     110.724858
	 B(2,4,3)         =         1.884156	     107.954200
	 B(2,4,7)         =         1.949430	     111.694117
	 B(3,4,7)         =         1.931388	     110.660363
	 B(4,7,5)         =         1.916338	     109.798105
	 B(4,7,6)         =         1.915961	     109.776475
	 B(4,7,10)        =         1.965724	     112.627715
	 B(5,7,6)         =         1.858267	     106.470880
	 B(5,7,10)        =         1.897406	     108.713360
	 B(6,7,10)        =         1.906946	     109.259934
	 B(7,10,8)        =         1.911638	     109.528798
	 B(7,10,9)        =         1.890849	     108.337645
	 B(7,10,14)       =         1.966565	     112.675867
	 B(8,10,9)        =         1.856198	     106.352318
	 B(8,10,14)       =         1.922572	     110.155253
	 B(9,10,14)       =         1.912487	     109.577432
	 B(10,14,11)      =         1.944624	     111.418772
	 B(10,14,12)      =         1.922511	     110.151752
	 B(10,14,13)      =         1.951489	     111.812105
	 B(11,14,12)      =         1.877564	     107.576498
	 B(11,14,13)      =         1.898300	     108.764604
	 B(12,14,13)      =         1.866185	     106.924508
	 D(1,4,7,5)       =        -3.110018	    -178.190917
	 D(1,4,7,6)       =        -1.072835	     -61.468905
	 D(1,4,7,10)      =         1.056132	      60.511878
	 D(2,4,7,5)       =        -1.009358	     -57.831941
	 D(2,4,7,6)       =         1.027826	      58.890070
	 D(2,4,7,10)      =        -3.126393	    -179.129146
	 D(3,4,7,5)       =         1.090322	      62.470842
	 D(3,4,7,6)       =         3.127505	     179.192854
	 D(3,4,7,10)      =        -1.026714	     -58.826363
	 D(4,7,10,8)      =        -0.964685	     -55.272363
	 D(4,7,10,9)      =         1.053118	      60.339230
	 D(4,7,10,14)     =        -3.111175	    -178.257175
	 D(5,7,10,8)      =        -3.092469	    -177.185402
	 D(5,7,10,9)      =        -1.074666	     -61.573809
	 D(5,7,10,14)     =         1.044227	      59.829786
	 D(6,7,10,8)      =         1.169371	      67.000010
	 D(6,7,10,9)      =        -3.096012	    -177.388397
	 D(6,7,10,14)     =        -0.977119	     -55.984802
	 D(7,10,14,11)    =         1.356639	      77.729664
	 D(7,10,14,12)    =        -0.725660	     -41.577273
	 D(7,10,14,13)    =        -2.798109	    -160.319856
	 D(8,10,14,11)    =        -0.783731	     -44.904503
	 D(8,10,14,12)    =        -2.866030	    -164.211439
	 D(8,10,14,13)    =         1.344706	      77.045978
	 D(9,10,14,11)    =        -2.820000	    -161.574123
	 D(9,10,14,12)    =         1.380886	      79.118941
	 D(9,10,14,13)    =        -0.691563	     -39.623642

	Current energy   :      -158.1600427031

	Energy change for the previous step:
		Projected    :         0.0000041917
		Actual       :        -0.0000006483

	Performing BFGS update.
	Previous computed or guess Hessian on step 1.
	Steps to be used in Hessian update: 5 4
	Adding user-defined constraint: Fragment 1; Coordinate 58:
		Value =    -2.798109; Fixed value    =    -2.792530
		Force =     0.003487; Force constant =     0.625000
	Removing off-diagonal coupling between coordinate 58 and others.
	Taking RFO optimization step.
	Going to follow RFO solution 1.
	Rejecting RFO root 1 because normalization gives large value.
	Using RFO vector 2.
	Norm of target step-size    0.00160
	Projected energy change by RFO approximation:        -0.0000000204

	Back-transformation to cartesian coordinates...
	Successfully converged to displaced geometry.

	--- Internal Coordinate Step in ANG or DEG, aJ/ANG or AJ/DEG ---
	 ---------------------------------------------------------------------------
	   Coordinate                Previous        Force       Change         New 
	   ----------                --------       ------       ------       ------
	    1 R(1,4)          =      1.088440     0.000053    -0.000002     1.088438
	    2 R(2,4)          =      1.087489     0.000018     0.000002     1.087492
	    3 R(3,4)          =      1.088623     0.000067     0.000006     1.088629
	    4 R(4,7)          =      1.516786     0.000023     0.000065     1.516851
	    5 R(5,7)          =      1.090811     0.000139     0.000017     1.090828
	    6 R(6,7)          =      1.091512     0.000022    -0.000005     1.091507
	    7 R(7,10)         =      1.516811    -0.000122     0.000012     1.516823
	    8 R(8,10)         =      1.090662     0.000011    -0.000004     1.090658
	    9 R(9,10)         =      1.091096     0.000197     0.000027     1.091123
	   10 R(10,14)        =      1.520092     0.000082     0.000084     1.520176
	   11 R(11,14)        =      1.087310     0.000030    -0.000004     1.087306
	   12 R(12,14)        =      1.089297     0.000193     0.000034     1.089331
	   13 R(13,14)        =      1.087249     0.000001    -0.000002     1.087247
	   14 B(1,4,2)        =    107.963831     0.000000     0.004545   107.968376
	   15 B(1,4,3)        =    107.693730     0.000000     0.007209   107.700939
	   16 B(1,4,7)        =    110.724858     0.000001     0.001756   110.726614
	   17 B(2,4,3)        =    107.954200     0.000001     0.003054   107.957254
	   18 B(2,4,7)        =    111.694117    -0.000001    -0.005294   111.688823
	   19 B(3,4,7)        =    110.660363    -0.000001    -0.010455   110.649908
	   20 B(4,7,5)        =    109.798105     0.000001     0.001710   109.799815
	   21 B(4,7,6)        =    109.776475    -0.000001    -0.010875   109.765599
	   22 B(4,7,10)       =    112.627715     0.000000    -0.001224   112.626491
	   23 B(5,7,6)        =    106.470880     0.000000     0.015836   106.486716
	   24 B(5,7,10)       =    108.713360    -0.000001    -0.004261   108.709099
	   25 B(6,7,10)       =    109.259934     0.000001    -0.000134   109.259800
	   26 B(7,10,8)       =    109.528798     0.000003     0.011359   109.540157
	   27 B(7,10,9)       =    108.337645    -0.000003    -0.012406   108.325240
	   28 B(7,10,14)      =    112.675867    -0.000001    -0.007256   112.668611
	   29 B(8,10,9)       =    106.352318     0.000000     0.014958   106.367276
	   30 B(8,10,14)      =    110.155253    -0.000000     0.000325   110.155577
	   31 B(9,10,14)      =    109.577432     0.000001    -0.005916   109.571517
	   32 B(10,14,11)     =    111.418772     0.000002     0.004038   111.422810
	   33 B(10,14,12)     =    110.151752    -0.000003    -0.014327   110.137424
	   34 B(10,14,13)     =    111.812105    -0.000000    -0.000167   111.811938
	   35 B(11,14,12)     =    107.576498     0.000000     0.003245   107.579743
	   36 B(11,14,13)     =    108.764604     0.000002     0.006176   108.770779
	   37 B(12,14,13)     =    106.924508    -0.000002     0.001221   106.925729
	   38 D(1,4,7,5)      =   -178.190917    -0.000000    -0.018680  -178.209597
	   39 D(1,4,7,6)      =    -61.468905     0.000000    -0.004831   -61.473737
	   40 D(1,4,7,10)     =     60.511878    -0.000000    -0.013624    60.498254
	   41 D(2,4,7,5)      =    -57.831941    -0.000000    -0.015270   -57.847212
	   42 D(2,4,7,6)      =     58.890070     0.000000    -0.001422    58.888649
	   43 D(2,4,7,10)     =   -179.129146     0.000000    -0.010215  -179.139361
	   44 D(3,4,7,5)      =     62.470842    -0.000000    -0.022062    62.448781
	   45 D(3,4,7,6)      =    179.192854    -0.000000    -0.008213   179.184641
	   46 D(3,4,7,10)     =    -58.826363    -0.000000    -0.017006   -58.843369
	   47 D(4,7,10,8)     =    -55.272363     0.000000     0.001531   -55.270831
	   48 D(4,7,10,9)     =     60.339230     0.000000     0.018578    60.357807
	   49 D(4,7,10,14)    =   -178.257175    -0.000000    -0.002123  -178.259298
	   50 D(5,7,10,8)     =   -177.185402     0.000000     0.003161  -177.182241
	   51 D(5,7,10,9)     =    -61.573809     0.000000     0.020207   -61.553603
	   52 D(5,7,10,14)    =     59.829786    -0.000000    -0.000494    59.829292
	   53 D(6,7,10,8)     =     67.000010     0.000000    -0.013282    66.986728
	   54 D(6,7,10,9)     =   -177.388397     0.000000     0.003764  -177.384633
	   55 D(6,7,10,14)    =    -55.984802    -0.000000    -0.016936   -56.001738
	   56 D(7,10,14,11)   =     77.729664     0.000001    -0.010058    77.719605
	   57 D(7,10,14,12)   =    -41.577273     0.000001    -0.007309   -41.584582
	   58 D(7,10,14,13)   =   -160.319856     0.000002     0.000690  -160.319166
	   59 D(8,10,14,11)   =    -44.904503    -0.000000    -0.019867   -44.924370
	   60 D(8,10,14,12)   =   -164.211439    -0.000000    -0.017118  -164.228558
	   61 D(8,10,14,13)   =     77.045978     0.000001    -0.009119    77.036858
	   62 D(9,10,14,11)   =   -161.574123    -0.000000    -0.034729  -161.608852
	   63 D(9,10,14,12)   =     79.118941    -0.000000    -0.031980    79.086961
	   64 D(9,10,14,13)   =    -39.623642     0.000001    -0.023980   -39.647623
	 ---------------------------------------------------------------------------
	Successfully symmetrized geometry.
	 Forces used to impose fixed constraints are not included.
	  Forces zeroed: 58 

  ==> Convergence Check <==

  Measures of convergence in internal coordinates in au.
  Criteria marked as inactive (o), active & met (*), and active & unmet ( ).
  ---------------------------------------------------------------------------------------------
   Step     Total Energy     Delta E     MAX Force     RMS Force      MAX Disp      RMS Disp   
  ---------------------------------------------------------------------------------------------
    Convergence Criteria    1.00e-06 *    3.00e-04 *             o    1.20e-03 *             o
  ---------------------------------------------------------------------------------------------
      6    -158.16004270   -6.48e-07 *    4.68e-05 *    1.62e-05 o    6.06e-04 *    1.99e-04 o  ~
  ---------------------------------------------------------------------------------------------


  **** Optimization is complete! (in 6 steps) ****

  ==> Optimization Summary <==

  Measures of convergence in internal coordinates in au.
  --------------------------------------------------------------------------------------------------------------- ~
   Step         Total Energy             Delta E       MAX Force       RMS Force        MAX Disp        RMS Disp  ~
  --------------------------------------------------------------------------------------------------------------- ~
      1    -158.155705306193   -158.155705306193      0.01318765      0.00560637      0.02516913      0.01250698  ~
      2    -158.158744565207     -0.003039259013      0.00492993      0.00227256      0.03002027      0.01252171  ~
      3    -158.159769571931     -0.001025006724      0.00165277      0.00064253      0.04178641      0.01251945  ~
      4    -158.160014945287     -0.000245373356      0.00071832      0.00017993      0.03361141      0.01062287  ~
      5    -158.160042054758     -0.000027109471      0.00009893      0.00003638      0.00471265      0.00181404  ~
      6    -158.160042703093     -0.000000648335      0.00008611      0.00001949      0.00060613      0.00019947  ~
  --------------------------------------------------------------------------------------------------------------- ~

	Writing optimization data to binary file.
	Final energy is   -158.1600427030934
	Final (previous) structure:
	Cartesian Geometry (in Angstrom)
	    H    -2.3453675647   0.0805260489   0.3403247726
	    H    -2.1911545941   1.7085768411  -0.3101589976
	    H    -1.9228118139   0.3141275589  -1.3499206738
	    C    -1.7744592301   0.7046805390  -0.3446548942
	    H     0.2500439288   1.3503299152  -0.6542243997
	    H    -0.1688921152   1.1029712873   1.0249809478
	    C    -0.3024668868   0.6957339095   0.0211310402
	    H    -0.2680129551  -1.3704094971   0.5922214476
	    H     0.2056853745  -1.0659227692  -1.0609617054
	    C     0.3057991483  -0.6923964748  -0.0406941079
	    H     1.8826375131  -0.6584092214   1.4467535514
	    H     2.2878577198   0.1497775742  -0.0588263325
	    H     2.2804225036  -1.5978877192   0.0031237801
	    C     1.7702528487  -0.7091668958   0.3664593320
	Saving final (previous) structure.
			--------------------------
			 OPTKING Finished Execution 
			--------------------------

    Final optimized geometry and variables:
    Molecular point group: c1
    Full point group: C1

    Geometry (in Angstrom), charge = 0, multiplicity = 1:

    H           -2.345367564734     0.080526048926     0.340324772622
    H           -2.191154594119     1.708576841060    -0.310158997561
    H           -1.922811813937     0.314127558862    -1.349920673755
    C           -1.774459230104     0.704680538998    -0.344654894218
    H            0.250043928826     1.350329915209    -0.654224399722
    H           -0.168892115228     1.102971287325     1.024980947757
    C           -0.302466886836     0.695733909491     0.021131040168
    H           -0.268012955096    -1.370409497110     0.592221447566
    H            0.205685374469    -1.065922769209    -1.060961705368
    C            0.305799148282    -0.692396474804    -0.040694107853
    H            1.882637513102    -0.658409221397     1.446753551443
    H            2.287857719758     0.149777574198    -0.058826332481
    H            2.280422503592    -1.597887719190     0.003123780092
    C            1.770252848696    -0.709166895790     0.366459331970

	Cleaning optimization helper files.

*** Psi4 exiting successfully. Buy a developer a beer!
