
    -----------------------------------------------------------------------
          Psi4: An Open-Source Ab Initio Electronic Structure Package
                               Psi4 1.1 release

                         Git: Rev {HEAD} add49b9 


    R. M. Parrish, L. A. Burns, D. G. A. Smith, A. C. Simmonett,
    A. E. DePrince III, E. G. Hohenstein, U. Bozkaya, A. Yu. Sokolov,
    R. Di Remigio, R. M. Richard, J. F. Gonthier, A. M. James,
    H. R. McAlexander, A. Kumar, M. Saitow, X. Wang, B. P. Pritchard,
    P. Verma, H. F. Schaefer III, K. Patkowski, R. A. King, E. F. Valeev,
    F. A. Evangelista, J. M. Turney, T. D. Crawford, and C. D. Sherrill,
    J. Chem. Theory Comput. in press (2017).
    (doi: 10.1021/acs.jctc.7b00174)

    -----------------------------------------------------------------------


    Psi4 started on: Wednesday, 14 June 2017 02:21PM

    Process ID:  26924
    PSIDATADIR: /cbio/jclab/home/chayas/anaconda/envs/py35/share/psi4
    Memory:     500.0 MiB
    Threads:    1
    
  ==> Input File <==

--------------------------------------------------------------------------

memory 5000 mb

molecule butane {
  symmetry C1
  0 1 
  H      1.539   1.414   -8.049
  H      1.920   2.252   -9.534
  H      1.933   0.506   -9.488
  C      2.142   1.395   -8.932
  H      4.169   2.051   -9.210
  H      3.731   1.788   -7.539
  C      3.631   1.416   -8.537
  H      3.665   -0.647   -7.940
  H      4.104   -0.384   -9.610
  C      4.203   -0.012   -8.612
  H      6.088   -0.983   -8.270
  H      5.791   0.381   -7.220
  H      6.230   0.644   -8.890
  C      5.691   0.009   -8.218
  units Angstrom
}

dih_string = "10 7 4 3 340"
set optking fixed_dihedral = $dih_string

optimize('MP2/aug-cc-pvtz')
--------------------------------------------------------------------------

  Memory set to   4.657 GiB by Python driver.
gradient() will perform analytic gradient computation.

*** tstart() called on gpu-1-17.local
*** at Wed Jun 14 14:21:22 2017

    SCF Algorithm Type (re)set to DF.

*** tstart() called on gpu-1-17.local
*** at Wed Jun 14 14:21:22 2017

   => Loading Basis Set <=

    Name: AUG-CC-PVTZ
    Role: ORBITAL
    Keyword: BASIS
    atoms 1-3, 5-6, 8-9, 11-13 entry H          line    34 file /cbio/jclab/home/chayas/anaconda/envs/py35/share/psi4/basis/aug-cc-pvtz.gbs 
    atoms 4, 7, 10, 14         entry C          line   221 file /cbio/jclab/home/chayas/anaconda/envs/py35/share/psi4/basis/aug-cc-pvtz.gbs 


         ---------------------------------------------------------
                                   SCF
            by Justin Turney, Rob Parrish, and Andy Simmonett
                              RHF Reference
                        1 Threads,   4768 MiB Core
         ---------------------------------------------------------

  ==> Geometry <==

    Molecular point group: c1
    Full point group: C1

    Geometry (in Angstrom), charge = 0, multiplicity = 1:

       Center              X                  Y                   Z               Mass       
    ------------   -----------------  -----------------  -----------------  -----------------
           H         -2.377793382205     0.711965294236     0.525793382205     1.007825032070
           H         -1.996793382205     1.549965294236    -0.959206617795     1.007825032070
           H         -1.983793382205    -0.196034705764    -0.913206617795     1.007825032070
           C         -1.774793382205     0.692965294236    -0.357206617795    12.000000000000
           H          0.252206617795     1.348965294236    -0.635206617795     1.007825032070
           H         -0.185793382205     1.085965294236     1.035793382205     1.007825032070
           C         -0.285793382205     0.713965294236     0.037793382205    12.000000000000
           H         -0.251793382205    -1.349034705764     0.634793382205     1.007825032070
           H          0.187206617795    -1.086034705764    -1.035206617795     1.007825032070
           C          0.286206617795    -0.714034705764    -0.037206617795    12.000000000000
           H          2.171206617795    -1.685034705764     0.304793382205     1.007825032070
           H          1.874206617795    -0.321034705764     1.354793382205     1.007825032070
           H          2.313206617795    -0.058034705764    -0.315206617795     1.007825032070
           C          1.774206617795    -0.693034705764     0.356793382205    12.000000000000

  Running in c1 symmetry.

  Rotational constants: A =      0.76952  B =      0.12464  C =      0.11638 [cm^-1]
  Rotational constants: A =  23069.71087  B =   3736.69556  C =   3488.94218 [MHz]
  Nuclear repulsion =  131.844809650285242

  Charge       = 0
  Multiplicity = 1
  Electrons    = 34
  Nalpha       = 17
  Nbeta        = 17

  ==> Algorithm <==

  SCF Algorithm Type is DF.
  DIIS enabled.
  MOM disabled.
  Fractional occupation disabled.
  Guess Type is SAD.
  Energy threshold   = 1.00e-10
  Density threshold  = 1.00e-10
  Integral threshold = 0.00e+00

  ==> Primary Basis <==

  Basis Set: AUG-CC-PVTZ
    Blend: AUG-CC-PVTZ
    Number of shells: 146
    Number of basis function: 414
    Number of Cartesian functions: 470
    Spherical Harmonics?: true
    Max angular momentum: 3

   => Loading Basis Set <=

    Name: (AUG-CC-PVTZ AUX)
    Role: JKFIT
    Keyword: DF_BASIS_SCF
    atoms 1-3, 5-6, 8-9, 11-13 entry H          line    69 file /cbio/jclab/home/chayas/anaconda/envs/py35/share/psi4/basis/aug-cc-pvtz-jkfit.gbs 
    atoms 4, 7, 10, 14         entry C          line   161 file /cbio/jclab/home/chayas/anaconda/envs/py35/share/psi4/basis/aug-cc-pvtz-jkfit.gbs 

  ==> Pre-Iterations <==

   -------------------------------------------------------
    Irrep   Nso     Nmo     Nalpha   Nbeta   Ndocc  Nsocc
   -------------------------------------------------------
     A        414     414       0       0       0       0
   -------------------------------------------------------
    Total     414     414      17      17      17       0
   -------------------------------------------------------

  ==> Integral Setup <==

  ==> DFJK: Density-Fitted J/K Matrices <==

    J tasked:                  Yes
    K tasked:                  Yes
    wK tasked:                  No
    OpenMP threads:              1
    Integrals threads:           1
    Memory (MB):              3576
    Algorithm:                Core
    Integral Cache:           NONE
    Schwarz Cutoff:          1E-12
    Fitting Condition:       1E-12

   => Auxiliary Basis Set <=

  Basis Set: (AUG-CC-PVTZ AUX)
    Blend: AUG-CC-PVTZ-JKFIT
    Number of shells: 260
    Number of basis function: 876
    Number of Cartesian functions: 1074
    Spherical Harmonics?: true
    Max angular momentum: 4

  Minimum eigenvalue in the overlap matrix is 8.5151751690E-06.
  Using Symmetric Orthogonalization.

  SCF Guess: Superposition of Atomic Densities via on-the-fly atomic UHF.

  ==> Iterations <==

                           Total Energy        Delta E     RMS |[F,P]|

   @DF-RHF iter   0:  -158.86965287311421   -1.58870e+02   9.32179e-03 
   @DF-RHF iter   1:  -157.22128841431535    1.64836e+00   1.00406e-03 
   @DF-RHF iter   2:  -157.33226921961767   -1.10981e-01   3.52441e-04 DIIS
   @DF-RHF iter   3:  -157.34614830993661   -1.38791e-02   1.25353e-04 DIIS
   @DF-RHF iter   4:  -157.34852307698412   -2.37477e-03   2.07030e-05 DIIS
   @DF-RHF iter   5:  -157.34860090317937   -7.78262e-05   6.51972e-06 DIIS
   @DF-RHF iter   6:  -157.34860745560383   -6.55242e-06   1.52774e-06 DIIS
   @DF-RHF iter   7:  -157.34860786199354   -4.06390e-07   2.58998e-07 DIIS
   @DF-RHF iter   8:  -157.34860787814537   -1.61518e-08   4.89963e-08 DIIS
   @DF-RHF iter   9:  -157.34860787871196   -5.66587e-10   1.13451e-08 DIIS
   @DF-RHF iter  10:  -157.34860787874371   -3.17470e-11   2.69524e-09 DIIS
   @DF-RHF iter  11:  -157.34860787874635   -2.64322e-12   7.57320e-10 DIIS
   @DF-RHF iter  12:  -157.34860787874516    1.19371e-12   1.80302e-10 DIIS
   @DF-RHF iter  13:  -157.34860787874513    2.84217e-14   4.39920e-11 DIIS

  ==> Post-Iterations <==

    Orbital Energies (a.u.)
    -----------------------

    Doubly Occupied:                                                      

       1A    -11.207237     2A    -11.205705     3A    -11.198296  
       4A    -11.197289     5A     -1.070727     6A     -0.980977  
       7A     -0.861267     8A     -0.795468     9A     -0.646593  
      10A     -0.587425    11A     -0.577039    12A     -0.571548  
      13A     -0.512285    14A     -0.504459    15A     -0.472908  
      16A     -0.468954    17A     -0.440697  

    Virtual:                                                              

      18A      0.032331    19A      0.037673    20A      0.039414  
      21A      0.040376    22A      0.058169    23A      0.058856  
      24A      0.060256    25A      0.060933    26A      0.077983  
      27A      0.083078    28A      0.102281    29A      0.112751  
      30A      0.122657    31A      0.130485    32A      0.138494  
      33A      0.142129    34A      0.142305    35A      0.145329  
      36A      0.148337    37A      0.160821    38A      0.165959  
      39A      0.166294    40A      0.172398    41A      0.200099  
      42A      0.202044    43A      0.215306    44A      0.226681  
      45A      0.242144    46A      0.250447    47A      0.254809  
      48A      0.267342    49A      0.279787    50A      0.283331  
      51A      0.289016    52A      0.311446    53A      0.318847  
      54A      0.331502    55A      0.339209    56A      0.346564  
      57A      0.357738    58A      0.358518    59A      0.359131  
      60A      0.367641    61A      0.369084    62A      0.371479  
      63A      0.382499    64A      0.387499    65A      0.390315  
      66A      0.391403    67A      0.397411    68A      0.400367  
      69A      0.405406    70A      0.410228    71A      0.416616  
      72A      0.430923    73A      0.443652    74A      0.446595  
      75A      0.448899    76A      0.462622    77A      0.462776  
      78A      0.465219    79A      0.470962    80A      0.486419  
      81A      0.490283    82A      0.500398    83A      0.503155  
      84A      0.508976    85A      0.517259    86A      0.518614  
      87A      0.524008    88A      0.529907    89A      0.540961  
      90A      0.543695    91A      0.547962    92A      0.556211  
      93A      0.567472    94A      0.574733    95A      0.580347  
      96A      0.588914    97A      0.599554    98A      0.612834  
      99A      0.614244   100A      0.634459   101A      0.641707  
     102A      0.655804   103A      0.678373   104A      0.680525  
     105A      0.696948   106A      0.722348   107A      0.757591  
     108A      0.773666   109A      0.798299   110A      0.811741  
     111A      0.821644   112A      0.828404   113A      0.835689  
     114A      0.842278   115A      0.847605   116A      0.861513  
     117A      0.865337   118A      0.879722   119A      0.880614  
     120A      0.888997   121A      0.895183   122A      0.902000  
     123A      0.916802   124A      0.921640   125A      0.923940  
     126A      0.928837   127A      0.933495   128A      0.937824  
     129A      0.947611   130A      0.957988   131A      0.964376  
     132A      0.976212   133A      0.981904   134A      0.991832  
     135A      0.997282   136A      1.016276   137A      1.029838  
     138A      1.033464   139A      1.045881   140A      1.071793  
     141A      1.078543   142A      1.080467   143A      1.089806  
     144A      1.095938   145A      1.104063   146A      1.111459  
     147A      1.120619   148A      1.137299   149A      1.152545  
     150A      1.156076   151A      1.162105   152A      1.172780  
     153A      1.180763   154A      1.198133   155A      1.213418  
     156A      1.219717   157A      1.229062   158A      1.242737  
     159A      1.245060   160A      1.248940   161A      1.260899  
     162A      1.270052   163A      1.275087   164A      1.288216  
     165A      1.296270   166A      1.309736   167A      1.313925  
     168A      1.323521   169A      1.339651   170A      1.357258  
     171A      1.370215   172A      1.392199   173A      1.414351  
     174A      1.418839   175A      1.433734   176A      1.442376  
     177A      1.458208   178A      1.479787   179A      1.492001  
     180A      1.504452   181A      1.522637   182A      1.527810  
     183A      1.542745   184A      1.556435   185A      1.570014  
     186A      1.585048   187A      1.604042   188A      1.608230  
     189A      1.630733   190A      1.643945   191A      1.650815  
     192A      1.668011   193A      1.683404   194A      1.689575  
     195A      1.700242   196A      1.702288   197A      1.713012  
     198A      1.717327   199A      1.729121   200A      1.735485  
     201A      1.740033   202A      1.756480   203A      1.762027  
     204A      1.767698   205A      1.776740   206A      1.780611  
     207A      1.787943   208A      1.810835   209A      1.822408  
     210A      1.849513   211A      1.861046   212A      1.884063  
     213A      1.898799   214A      1.912000   215A      1.924666  
     216A      1.941226   217A      1.967950   218A      1.969811  
     219A      1.992436   220A      2.002156   221A      2.007608  
     222A      2.025049   223A      2.031308   224A      2.038428  
     225A      2.056786   226A      2.061082   227A      2.081212  
     228A      2.089765   229A      2.102230   230A      2.161966  
     231A      2.175063   232A      2.187319   233A      2.196803  
     234A      2.211948   235A      2.238571   236A      2.261234  
     237A      2.270198   238A      2.286042   239A      2.303705  
     240A      2.310607   241A      2.329054   242A      2.338699  
     243A      2.348692   244A      2.360220   245A      2.372700  
     246A      2.386484   247A      2.415072   248A      2.445874  
     249A      2.461488   250A      2.473026   251A      2.505501  
     252A      2.542005   253A      2.593884   254A      2.612061  
     255A      2.621105   256A      2.670852   257A      2.784152  
     258A      2.882047   259A      2.960777   260A      3.026557  
     261A      3.204347   262A      3.249807   263A      3.297100  
     264A      3.360592   265A      3.395851   266A      3.425336  
     267A      3.439961   268A      3.461422   269A      3.473502  
     270A      3.487492   271A      3.524024   272A      3.560435  
     273A      3.569239   274A      3.580876   275A      3.594045  
     276A      3.603426   277A      3.623404   278A      3.669369  
     279A      3.682221   280A      3.691171   281A      3.700022  
     282A      3.714183   283A      3.727637   284A      3.743322  
     285A      3.751601   286A      3.779504   287A      3.788145  
     288A      3.796580   289A      3.828807   290A      3.838341  
     291A      3.847732   292A      3.869459   293A      3.881620  
     294A      3.890547   295A      3.914738   296A      3.920439  
     297A      3.961909   298A      3.976208   299A      3.984512  
     300A      3.987741   301A      4.010847   302A      4.014465  
     303A      4.029930   304A      4.038097   305A      4.052272  
     306A      4.065393   307A      4.083609   308A      4.094242  
     309A      4.152685   310A      4.174419   311A      4.187854  
     312A      4.197242   313A      4.237488   314A      4.245128  
     315A      4.252284   316A      4.272906   317A      4.286342  
     318A      4.300046   319A      4.320948   320A      4.331579  
     321A      4.347909   322A      4.377365   323A      4.383740  
     324A      4.422070   325A      4.454465   326A      4.471919  
     327A      4.523712   328A      4.540247   329A      4.565611  
     330A      4.584435   331A      4.610793   332A      4.658704  
     333A      4.668659   334A      4.684186   335A      4.716367  
     336A      4.720853   337A      4.744647   338A      4.754800  
     339A      4.772125   340A      4.795252   341A      4.813981  
     342A      4.871162   343A      4.872322   344A      4.887060  
     345A      4.900801   346A      4.942750   347A      4.950963  
     348A      4.963939   349A      4.990620   350A      5.006010  
     351A      5.039027   352A      5.058137   353A      5.072714  
     354A      5.112986   355A      5.138542   356A      5.152173  
     357A      5.185913   358A      5.191959   359A      5.223054  
     360A      5.250666   361A      5.255874   362A      5.276368  
     363A      5.306165   364A      5.310653   365A      5.327320  
     366A      5.350729   367A      5.372838   368A      5.396503  
     369A      5.440630   370A      5.459713   371A      5.465341  
     372A      5.471891   373A      5.503604   374A      5.528761  
     375A      5.577359   376A      5.595866   377A      5.606666  
     378A      5.656426   379A      5.663751   380A      5.687650  
     381A      5.705283   382A      5.748061   383A      5.762305  
     384A      5.803156   385A      5.814354   386A      5.855781  
     387A      5.896167   388A      5.938705   389A      5.976628  
     390A      6.025902   391A      6.109578   392A      6.145244  
     393A      6.168145   394A      6.205095   395A      6.229566  
     396A      6.257033   397A      6.272997   398A      6.336204  
     399A      6.344587   400A      6.373505   401A      6.392425  
     402A      6.487917   403A      6.560900   404A      6.622137  
     405A      6.748169   406A      6.782343   407A      6.831102  
     408A      6.853341   409A      6.869684   410A      6.981747  
     411A     18.165266   412A     18.238954   413A     18.896954  
     414A     19.607704  

    Final Occupation by Irrep:
              A 
    DOCC [    17 ]

  Energy converged.

  @DF-RHF Final Energy:  -157.34860787874513

   => Energetics <=

    Nuclear Repulsion Energy =            131.8448096502852422
    One-Electron Energy =                -471.7890868229085868
    Two-Electron Energy =                 182.5956692938782169
    DFT Exchange-Correlation Energy =       0.0000000000000000
    Empirical Dispersion Energy =           0.0000000000000000
    PCM Polarization Energy =               0.0000000000000000
    EFP Energy =                            0.0000000000000000
    Total Energy =                       -157.3486078787451277



Properties will be evaluated at   0.000000,   0.000000,   0.000000 Bohr

Properties computed using the SCF density matrix

  Nuclear Dipole Moment: (a.u.)
     X:     0.0019      Y:     0.0015      Z:    -0.0019

  Electronic Dipole Moment: (a.u.)
     X:    -0.0020      Y:    -0.0022      Z:     0.0036

  Dipole Moment: (a.u.)
     X:    -0.0001      Y:    -0.0007      Z:     0.0017     Total:     0.0018

  Dipole Moment: (Debye)
     X:    -0.0003      Y:    -0.0017      Z:     0.0043     Total:     0.0046


*** tstop() called on gpu-1-17.local at Wed Jun 14 14:22:49 2017
Module time:
	user time   =      86.34 seconds =       1.44 minutes
	system time =       0.60 seconds =       0.01 minutes
	total time  =         87 seconds =       1.45 minutes
Total time:
	user time   =      86.35 seconds =       1.44 minutes
	system time =       0.60 seconds =       0.01 minutes
	total time  =         87 seconds =       1.45 minutes

  //>>>>>>>>>>>>>>>>>>>>>>>>>>>>>>>>>>>//
  //               DFMP2               //
  //<<<<<<<<<<<<<<<<<<<<<<<<<<<<<<<<<<<//

   => Loading Basis Set <=

    Name: (AUG-CC-PVTZ AUX)
    Role: RIFIT
    Keyword: DF_BASIS_MP2
    atoms 1-3, 5-6, 8-9, 11-13 entry H          line    29 file /cbio/jclab/home/chayas/anaconda/envs/py35/share/psi4/basis/aug-cc-pvtz-ri.gbs 
    atoms 4, 7, 10, 14         entry C          line   147 file /cbio/jclab/home/chayas/anaconda/envs/py35/share/psi4/basis/aug-cc-pvtz-ri.gbs 

	 --------------------------------------------------------
	                          DF-MP2                         
	      2nd-Order Density-Fitted Moller-Plesset Theory     
	              RMP2 Wavefunction,   1 Threads             
	                                                         
	        Rob Parrish, Justin Turney, Andy Simmonett,      
	           Ed Hohenstein, and C. David Sherrill          
	 --------------------------------------------------------

   => Auxiliary Basis Set <=

  Basis Set: (AUG-CC-PVTZ AUX)
    Blend: AUG-CC-PVTZ-RI
    Number of shells: 252
    Number of basis function: 884
    Number of Cartesian functions: 1094
    Spherical Harmonics?: true
    Max angular momentum: 4

	 --------------------------------------------------------
	                 NBF =   414, NAUX =   884
	 --------------------------------------------------------
	   CLASS    FOCC     OCC    AOCC    AVIR     VIR    FVIR
	   PAIRS       0      17      17     397     397       0
	 --------------------------------------------------------


         ------------------------------------------------------------
                                     CPHF                           
                                  Rob Parrish                       
         ------------------------------------------------------------

  ==> Geometry <==

    Molecular point group: c1
    Full point group: C1

    Geometry (in Angstrom), charge = 0, multiplicity = 1:

       Center              X                  Y                   Z               Mass       
    ------------   -----------------  -----------------  -----------------  -----------------
           H         -2.377793382205     0.711965294236     0.525793382205     1.007825032070
           H         -1.996793382205     1.549965294236    -0.959206617795     1.007825032070
           H         -1.983793382205    -0.196034705764    -0.913206617795     1.007825032070
           C         -1.774793382205     0.692965294236    -0.357206617795    12.000000000000
           H          0.252206617795     1.348965294236    -0.635206617795     1.007825032070
           H         -0.185793382205     1.085965294236     1.035793382205     1.007825032070
           C         -0.285793382205     0.713965294236     0.037793382205    12.000000000000
           H         -0.251793382205    -1.349034705764     0.634793382205     1.007825032070
           H          0.187206617795    -1.086034705764    -1.035206617795     1.007825032070
           C          0.286206617795    -0.714034705764    -0.037206617795    12.000000000000
           H          2.171206617795    -1.685034705764     0.304793382205     1.007825032070
           H          1.874206617795    -0.321034705764     1.354793382205     1.007825032070
           H          2.313206617795    -0.058034705764    -0.315206617795     1.007825032070
           C          1.774206617795    -0.693034705764     0.356793382205    12.000000000000

  Nuclear repulsion =  131.844809650285242
  Reference energy  = -157.348607878745128

  ==> Basis Set <==

  Basis Set: AUG-CC-PVTZ
    Blend: AUG-CC-PVTZ
    Number of shells: 146
    Number of basis function: 414
    Number of Cartesian functions: 470
    Spherical Harmonics?: true
    Max angular momentum: 3

  ==> CGRSolver (by Rob Parrish) <==

   Number of roots    =         1
   Preconditioning    =    JACOBI
   Convergence cutoff =     1E-06
   Maximum iterations =       100

  ==> CPHFRHamiltonian (by Rob Parrish) <== 

  ==> DFJK: Density-Fitted J/K Matrices <==

    J tasked:                  Yes
    K tasked:                  Yes
    wK tasked:                  No
    OpenMP threads:              1
    Integrals threads:           1
    Memory (MB):              3576
    Algorithm:                Core
    Integral Cache:           NONE
    Schwarz Cutoff:          1E-12
    Fitting Condition:       1E-12

   => Auxiliary Basis Set <=

  Basis Set: (AUG-CC-PVTZ AUX)
    Blend: AUG-CC-PVTZ-JKFIT
    Number of shells: 260
    Number of basis function: 876
    Number of Cartesian functions: 1074
    Spherical Harmonics?: true
    Max angular momentum: 4

  ==> CPHF Iterations <==

  => Iterations <=

             Iter  Converged  Remaining    Residual
  CGR           1          0          1   8.170E-02
  CGR           2          0          1   1.312E-02
  CGR           3          0          1   3.418E-03
  CGR           4          0          1   8.060E-04
  CGR           5          0          1   1.189E-04
  CGR           6          0          1   2.164E-05
  CGR           7          0          1   4.035E-06
  CGR           8          0          1   1.020E-06
  CGR           9          1          0   2.577E-07

    CGRSolver converged.

  ==> DFCorrGrad: Density-Fitted Correlated Gradients <==

    OpenMP threads:              1
    Integrals threads:           1
    Memory (MB):              3576
    Schwarz Cutoff:          0E+00
    Fitting Condition:       1E-12

   => Auxiliary Basis Set <=

  Basis Set: (AUG-CC-PVTZ AUX)
    Blend: AUG-CC-PVTZ-JKFIT
    Number of shells: 260
    Number of basis function: 876
    Number of Cartesian functions: 1074
    Spherical Harmonics?: true
    Max angular momentum: 4

	-----------------------------------------------------------
	 ==================> DF-MP2 Energies <==================== 
	-----------------------------------------------------------
	 Reference Energy          =    -157.3486078787451277 [Eh]
	 Singles Energy            =      -0.0000000000000000 [Eh]
	 Same-Spin Energy          =      -0.1654605995024909 [Eh]
	 Opposite-Spin Energy      =      -0.6393185418996385 [Eh]
	 Correlation Energy        =      -0.8047791414021295 [Eh]
	 Total Energy              =    -158.1533870201472496 [Eh]
	-----------------------------------------------------------
	 ================> DF-SCS-MP2 Energies <================== 
	-----------------------------------------------------------
	 SCS Same-Spin Scale       =       0.3333333333333333 [-]
	 SCS Opposite-Spin Scale   =       1.2000000000000000 [-]
	 SCS Same-Spin Energy      =      -0.0551535331674970 [Eh]
	 SCS Opposite-Spin Energy  =      -0.7671822502795662 [Eh]
	 SCS Correlation Energy    =      -0.8223357834470632 [Eh]
	 SCS Total Energy          =    -158.1709436621922009 [Eh]
	-----------------------------------------------------------


  -Total Gradient:
     Atom            X                  Y                   Z
    ------   -----------------  -----------------  -----------------
       1        0.010148714167     0.001048837254    -0.007119067201
       2        0.007517874340    -0.007966117184     0.005574691872
       3        0.005215417259     0.008626757464     0.007217016499
       4       -0.020689720205    -0.007019865163    -0.006462952825
       5       -0.008813237451    -0.006926497151     0.005579653911
       6       -0.004563021954    -0.005968420825    -0.010536993398
       7        0.017541899167     0.030049382940     0.010936611860
       8        0.008292817360     0.008609933585    -0.006381539691
       9        0.003456985712     0.005043413175     0.011508110871
      10       -0.023491402806    -0.031312159804    -0.012295729410
      11       -0.008450004169     0.010061820958    -0.000643477948
      12       -0.003306367489    -0.004000092391    -0.010996929350
      13       -0.007518775735    -0.006642112675     0.006254440297
      14        0.024658821804     0.006395119817     0.007366164510


*** tstop() called on gpu-1-17.local at Wed Jun 14 14:27:23 2017
Module time:
	user time   =     356.79 seconds =       5.95 minutes
	system time =       4.23 seconds =       0.07 minutes
	total time  =        361 seconds =       6.02 minutes
Total time:
	user time   =     356.80 seconds =       5.95 minutes
	system time =       4.23 seconds =       0.07 minutes
	total time  =        361 seconds =       6.02 minutes

			-----------------------------------------
			 OPTKING 2.0: for geometry optimizations 
			  - R.A. King,  Bethel University        
			-----------------------------------------

	Internal coordinates to be generated automatically.
	Detected frag 1 with atoms:  1 2 3 4 5 6 7 8 9 10 11 12 13 14
	---Fragment 1 Bond Connectivity---
	 1 : 4
	 2 : 4
	 3 : 4
	 4 : 1 2 3 7
	 5 : 7
	 6 : 7
	 7 : 4 5 6 10
	 8 : 10
	 9 : 10
	 10 : 7 8 9 14
	 11 : 14
	 12 : 14
	 13 : 14
	 14 : 10 11 12 13

	Assuming in current code that numbering for constraints corresponds to unified fragment.
	Fixed dihedral atom list: 
	    10     7     4     3
	---Fragment 1 Geometry and Gradient---
	 H          -4.4933782930        1.3454194222        0.9936054949
	 H          -3.7733926363        2.9290099216       -1.8126378125
	 H          -3.7488261966       -0.3704519064       -1.7257104104
	 C          -3.3538734348        1.3095146257       -0.6750226805
	 H           0.4766014365        2.5491749689       -1.2003665454
	 H          -0.3510986097        2.0521769959        1.9573658226
	 C          -0.5400712230        1.3491988745        0.0714191420
	 H          -0.4758205344       -2.5493061377        1.1995856433
	 H           0.3537692379       -2.0523081647       -1.9562569986
	 C           0.5408521251       -1.3493300433       -0.0703103180
	 H           4.1029858855       -3.1842541183        0.5759760195
	 H           3.5417372241       -0.6066676730        2.5601884590
	 H           4.3713269964       -0.1096697001       -0.5956541829
	 C           3.3527646108       -1.3096457945        0.6742417784
	             0.0101487142        0.0010488373       -0.0071190672
	             0.0075178743       -0.0079661172        0.0055746919
	             0.0052154173        0.0086267575        0.0072170165
	            -0.0206897202       -0.0070198652       -0.0064629528
	            -0.0088132375       -0.0069264972        0.0055796539
	            -0.0045630220       -0.0059684208       -0.0105369934
	             0.0175418992        0.0300493829        0.0109366119
	             0.0082928174        0.0086099336       -0.0063815397
	             0.0034569857        0.0050434132        0.0115081109
	            -0.0234914028       -0.0313121598       -0.0122957294
	            -0.0084500042        0.0100618210       -0.0006434779
	            -0.0033063675       -0.0040000924       -0.0109969294
	            -0.0075187757       -0.0066421127        0.0062544403
	             0.0246588218        0.0063951198        0.0073661645

	Previous optimization step data not found.  Starting new optimization.

	---Fragment 1 Intrafragment Coordinates---
	 - Coordinate -           - BOHR/RAD -       - ANG/DEG -
	 R(1,4)           =         2.020911	       1.069420
	 R(2,4)           =         2.023099	       1.070578
	 R(3,4)           =         2.020450	       1.069176
	 R(4,7)           =         2.911397	       1.540645
	 R(5,7)           =         2.022623	       1.070326
	 R(6,7)           =         2.021555	       1.069761
	 R(7,10)          =         2.910419	       1.540128
	 R(8,10)          =         2.021436	       1.069698
	 R(9,10)          =         2.021379	       1.069668
	 R(10,14)         =         2.909087	       1.539422
	 R(11,14)         =         2.021545	       1.069756
	 R(12,14)         =         2.021555	       1.069761
	 R(13,14)         =         2.022387	       1.070201
	 B(1,4,2)         =         1.910434	     109.459785
	 B(1,4,3)         =         1.911263	     109.507323
	 B(1,4,7)         =         1.910301	     109.452196
	 B(2,4,3)         =         1.909908	     109.429681
	 B(2,4,7)         =         1.910992	     109.491764
	 B(3,4,7)         =         1.910901	     109.486579
	 B(4,7,5)         =         1.909937	     109.431343
	 B(4,7,6)         =         1.911630	     109.528316
	 B(4,7,10)        =         1.911154	     109.501062
	 B(5,7,6)         =         1.910605	     109.469614
	 B(5,7,10)        =         1.910047	     109.437654
	 B(6,7,10)        =         1.910425	     109.459295
	 B(7,10,8)        =         1.910303	     109.452301
	 B(7,10,9)        =         1.910824	     109.482155
	 B(7,10,14)       =         1.911213	     109.504437
	 B(8,10,9)        =         1.910417	     109.458846
	 B(8,10,14)       =         1.910766	     109.478806
	 B(9,10,14)       =         1.910276	     109.450772
	 B(10,14,11)      =         1.910943	     109.488965
	 B(10,14,12)      =         1.911204	     109.503926
	 B(10,14,13)      =         1.911557	     109.524173
	 B(11,14,12)      =         1.910410	     109.458432
	 B(11,14,13)      =         1.910054	     109.438058
	 B(12,14,13)      =         1.909629	     109.413709
	 D(1,4,7,5)       =        -2.443620	    -140.009097
	 D(1,4,7,6)       =        -0.349075	     -20.000545
	 D(1,4,7,10)      =         1.745995	     100.038163
	 D(2,4,7,5)       =        -0.349453	     -20.022177
	 D(2,4,7,6)       =         1.745091	      99.986375
	 D(2,4,7,10)      =        -2.443023	    -139.974917
	 D(3,4,7,5)       =         1.744438	      99.948932
	 D(3,4,7,6)       =        -2.444203	    -140.042516
	 D(3,4,7,10)      =        -0.349132	     -20.003808
	 D(4,7,10,8)      =        -1.047368	     -60.009777
	 D(4,7,10,9)      =         1.046677	      59.970178
	 D(4,7,10,14)     =         3.141107	     179.972182
	 D(5,7,10,8)      =        -3.140871	    -179.958653
	 D(5,7,10,9)      =        -1.046826	     -59.978698
	 D(5,7,10,14)     =         1.047604	      60.023306
	 D(6,7,10,8)      =         1.048439	      60.071149
	 D(6,7,10,9)      =        -3.140701	    -179.948896
	 D(6,7,10,14)     =        -1.046271	     -59.946893
	 D(7,10,14,11)    =         3.141408	     179.989448
	 D(7,10,14,12)    =         1.046747	      59.974196
	 D(7,10,14,13)    =        -1.047335	     -60.007849
	 D(8,10,14,11)    =         1.046982	      59.987626
	 D(8,10,14,12)    =        -1.047680	     -60.027626
	 D(8,10,14,13)    =         3.141424	     179.990329
	 D(9,10,14,11)    =        -1.047012	     -59.989345
	 D(9,10,14,12)    =         3.141512	     179.995403
	 D(9,10,14,13)    =         1.047431	      60.013359

	Current energy   :      -158.1533870201

	Generating empirical Hessian (Schlegel '84) for each fragment.
	Adding user-defined constraint: Fragment 1; Coordinate 46:
		Value =    -0.349132; Fixed value    =    -0.349066
		Force =     0.000033; Force constant =     0.500000
	Removing off-diagonal coupling between coordinate 46 and others.
	Taking RFO optimization step.
	Going to follow RFO solution 1.
	Using RFO vector 1.

	Determining step-restricting scale parameter for RS-RFO.
	Maximum step size allowed    0.10000

	 Iter      |step|        alpha        rfo_root  
	------------------------------------------------
	    0     0.21411       1.00000           1
	    1     0.16427       5.42671           1
	    2     0.12817      16.10026           1
	    3     0.10817      29.82869           1
	    4     0.10099      37.52850           1
	    5     0.10002      38.72872           1
	    6     0.10000      38.75047           1
	------------------------------------------------
	Norm of target step-size    0.10000
	Projected energy change by RFO approximation:        -0.0042504904

	Back-transformation to cartesian coordinates...
	Could not converge backtransformation.
	Using first guess instead.

	--- Internal Coordinate Step in ANG or DEG, aJ/ANG or AJ/DEG ---
	 ---------------------------------------------------------------------------
	   Coordinate                Previous        Force       Change         New 
	   ----------                --------       ------       ------       ------
	    1 R(1,4)          =      1.069420     0.095420     0.011350     1.080770
	    2 R(2,4)          =      1.070578     0.091207     0.010898     1.081476
	    3 R(3,4)          =      1.069176     0.098416     0.011812     1.080988
	    4 R(4,7)          =      1.540645     0.015190     0.002242     1.542887
	    5 R(5,7)          =      1.070326     0.099258     0.011786     1.082112
	    6 R(6,7)          =      1.069761     0.101601     0.012046     1.081807
	    7 R(7,10)         =      1.540128    -0.073103    -0.010137     1.529991
	    8 R(8,10)         =      1.069698     0.109500     0.012970     1.082668
	    9 R(9,10)         =      1.069668     0.105546     0.012501     1.082169
	   10 R(10,14)        =      1.539422    -0.047702    -0.006666     1.532756
	   11 R(11,14)        =      1.069756     0.102449     0.012168     1.081924
	   12 R(12,14)        =      1.069761     0.098529     0.011714     1.081474
	   13 R(13,14)        =      1.070201     0.096023     0.011428     1.081629
	   14 B(1,4,2)        =    109.459785    -0.000372    -0.824726   108.635060
	   15 B(1,4,3)        =    109.507323    -0.000305    -0.763468   108.743855
	   16 B(1,4,7)        =    109.452196     0.000337     0.740036   110.192232
	   17 B(2,4,3)        =    109.429681    -0.000306    -0.665423   108.764258
	   18 B(2,4,7)        =    109.491764     0.000460     1.076013   110.567777
	   19 B(3,4,7)        =    109.486579     0.000187     0.406608   109.893188
	   20 B(4,7,5)        =    109.431343    -0.000078     0.014240   109.445582
	   21 B(4,7,6)        =    109.528316    -0.000111    -0.087431   109.440885
	   22 B(4,7,10)       =    109.501062     0.000744     1.530251   111.031314
	   23 B(5,7,6)        =    109.469614     0.000001    -0.274428   109.195186
	   24 B(5,7,10)       =    109.437654    -0.000271    -0.594589   108.843066
	   25 B(6,7,10)       =    109.459295    -0.000285    -0.602857   108.856438
	   26 B(7,10,8)       =    109.452301    -0.000213    -0.423433   109.028868
	   27 B(7,10,9)       =    109.482155    -0.000253    -0.534942   108.947213
	   28 B(7,10,14)      =    109.504437     0.000688     1.410857   110.915294
	   29 B(8,10,9)       =    109.458846     0.000022    -0.184580   109.274266
	   30 B(8,10,14)      =    109.478806    -0.000136    -0.172001   109.306805
	   31 B(9,10,14)      =    109.450772    -0.000109    -0.105730   109.345043
	   32 B(10,14,11)     =    109.488965     0.000416     0.965290   110.454255
	   33 B(10,14,12)     =    109.503926     0.000132     0.285660   109.789586
	   34 B(10,14,13)     =    109.524173     0.000103     0.218100   109.742273
	   35 B(11,14,12)     =    109.458432    -0.000249    -0.547189   108.911243
	   36 B(11,14,13)     =    109.438058    -0.000239    -0.527005   108.911053
	   37 B(12,14,13)     =    109.413709    -0.000163    -0.410441   109.003268
	   38 D(1,4,7,5)      =   -140.009097    -0.000003    -0.087574  -140.096671
	   39 D(1,4,7,6)      =    -20.000545    -0.000029    -0.467919   -20.468464
	   40 D(1,4,7,10)     =    100.038163    -0.000020    -0.313940    99.724223
	   41 D(2,4,7,5)      =    -20.022177     0.000005     0.034408   -19.987769
	   42 D(2,4,7,6)      =     99.986375    -0.000022    -0.345937    99.640438
	   43 D(2,4,7,10)     =   -139.974917    -0.000012    -0.191958  -140.166875
	   44 D(3,4,7,5)      =     99.948932     0.000010     0.140097   100.089030
	   45 D(3,4,7,6)      =   -140.042516    -0.000017    -0.240247  -140.282763
	   46 D(3,4,7,10)     =    -20.003808    -0.000008    -0.086268   -20.090076
	   47 D(4,7,10,8)     =    -60.009777     0.000035     0.483128   -59.526649
	   48 D(4,7,10,9)     =     59.970178    -0.000024    -0.315581    59.654597
	   49 D(4,7,10,14)    =    179.972182     0.000007     0.089139   180.061320
	   50 D(5,7,10,8)     =   -179.958653    -0.000009    -0.104218  -180.062870
	   51 D(5,7,10,9)     =    -59.978698    -0.000068    -0.902926   -60.881624
	   52 D(5,7,10,14)    =     60.023306    -0.000038    -0.498206    59.525099
	   53 D(6,7,10,8)     =     60.071149     0.000068     0.941264    61.012413
	   54 D(6,7,10,9)     =   -179.948896     0.000009     0.142556  -179.806341
	   55 D(6,7,10,14)    =    -59.946893     0.000040     0.547275   -59.399618
	   56 D(7,10,14,11)   =    179.989448     0.000003     0.041765   180.031213
	   57 D(7,10,14,12)   =     59.974196    -0.000004    -0.063862    59.910334
	   58 D(7,10,14,13)   =    -60.007849     0.000009     0.129448   -59.878401
	   59 D(8,10,14,11)   =     59.987626    -0.000015    -0.203305    59.784321
	   60 D(8,10,14,12)   =    -60.027626    -0.000022    -0.308931   -60.336557
	   61 D(8,10,14,13)   =    179.990329    -0.000009    -0.115622   179.874708
	   62 D(9,10,14,11)   =    -59.989345     0.000013     0.190807   -59.798538
	   63 D(9,10,14,12)   =    179.995403     0.000007     0.085181   180.080584
	   64 D(9,10,14,13)   =     60.013359     0.000019     0.278490    60.291849
	 ---------------------------------------------------------------------------
	Successfully symmetrized geometry.
	 Forces used to impose fixed constraints are not included.
	  Forces zeroed: 46 

  ==> Convergence Check <==

  Measures of convergence in internal coordinates in au.
  Criteria marked as inactive (o), active & met (*), and active & unmet ( ).
  --------------------------------------------------------------------------------------------- ~
   Step     Total Energy     Delta E     MAX Force     RMS Force      MAX Disp      RMS Disp    ~
  --------------------------------------------------------------------------------------------- ~
    Convergence Criteria    1.00e-06 *    3.00e-04 *             o    1.20e-03 *             o  ~
  --------------------------------------------------------------------------------------------- ~
      1    -158.15338702   -1.58e+02      1.33e-02      5.67e-03 o    2.67e-02      1.25e-02 o  ~
  ---------------------------------------------------------------------------------------------

	Writing optimization data to binary file.
	Structure for next step:
	Cartesian Geometry (in Angstrom)
	    H    -2.4019289523   0.7187845347   0.5273345833
	    H    -2.0199071539   1.5649394334  -0.9635399276
	    H    -2.0127152957  -0.1925031138  -0.9237008782
	    C    -1.7834141007   0.7001292368  -0.3587548193
	    H     0.2575849135   1.3447410663  -0.6449544818
	    H    -0.1849341248   1.0807353730   1.0419161410
	    C    -0.2911557232   0.7044869194   0.0332237911
	    H    -0.2481819727  -1.3489586797   0.6453700626
	    H     0.1956715964  -1.0824404583  -1.0424417597
	    C     0.2980847962  -0.7059287928  -0.0330659484
	    H     2.1891036599  -1.6991229389   0.3083241222
	    H     1.8905656713  -0.3248169782   1.3669796053
	    H     2.3330894845  -0.0597707477  -0.3168336240
	    C     1.7800298505  -0.6987607349   0.3582504843
			--------------------------
			 OPTKING Finished Execution 
			--------------------------

    Structure for next step:
    Molecular point group: c1
    Full point group: C1

    Geometry (in Angstrom), charge = 0, multiplicity = 1:

    H           -2.402632705849     0.718772147068     0.527433004998
    H           -2.020610907394     1.564927045751    -0.963441505830
    H           -2.013419049182    -0.192515501467    -0.923602456487
    C           -1.784117854177     0.700116849135    -0.358656397518
    H            0.256881160002     1.344728678652    -0.644856060093
    H           -0.185637878278     1.080722985301     1.042014562776
    C           -0.291859476683     0.704474531681     0.033322212856
    H           -0.248885726263    -1.348971067411     0.645468484342
    H            0.194967842876    -1.082452845996    -1.042343337935
    C            0.297381042712    -0.705941180481    -0.032967526618
    H            2.188399906358    -1.699135326582     0.308422543915
    H            1.889861917795    -0.324829365872     1.367078027018
    H            2.332385730964    -0.059783135420    -0.316735202304
    C            1.779326097000    -0.698773122573     0.358348906013

gradient() will perform analytic gradient computation.

*** tstart() called on gpu-1-17.local
*** at Wed Jun 14 14:27:23 2017

    SCF Algorithm Type (re)set to DF.

*** tstart() called on gpu-1-17.local
*** at Wed Jun 14 14:27:24 2017

   => Loading Basis Set <=

    Name: AUG-CC-PVTZ
    Role: ORBITAL
    Keyword: BASIS
    atoms 1-3, 5-6, 8-9, 11-13 entry H          line    34 file /cbio/jclab/home/chayas/anaconda/envs/py35/share/psi4/basis/aug-cc-pvtz.gbs 
    atoms 4, 7, 10, 14         entry C          line   221 file /cbio/jclab/home/chayas/anaconda/envs/py35/share/psi4/basis/aug-cc-pvtz.gbs 


         ---------------------------------------------------------
                                   SCF
            by Justin Turney, Rob Parrish, and Andy Simmonett
                              RHF Reference
                        1 Threads,   4768 MiB Core
         ---------------------------------------------------------

  ==> Geometry <==

    Molecular point group: c1
    Full point group: C1

    Geometry (in Angstrom), charge = 0, multiplicity = 1:

       Center              X                  Y                   Z               Mass       
    ------------   -----------------  -----------------  -----------------  -----------------
           H         -2.402632705849     0.718772147068     0.527433004998     1.007825032070
           H         -2.020610907394     1.564927045751    -0.963441505830     1.007825032070
           H         -2.013419049182    -0.192515501467    -0.923602456487     1.007825032070
           C         -1.784117854177     0.700116849135    -0.358656397518    12.000000000000
           H          0.256881160002     1.344728678652    -0.644856060093     1.007825032070
           H         -0.185637878278     1.080722985301     1.042014562776     1.007825032070
           C         -0.291859476683     0.704474531681     0.033322212856    12.000000000000
           H         -0.248885726263    -1.348971067411     0.645468484342     1.007825032070
           H          0.194967842876    -1.082452845996    -1.042343337935     1.007825032070
           C          0.297381042712    -0.705941180481    -0.032967526618    12.000000000000
           H          2.188399906358    -1.699135326582     0.308422543915     1.007825032070
           H          1.889861917795    -0.324829365872     1.367078027018     1.007825032070
           H          2.332385730964    -0.059783135420    -0.316735202304     1.007825032070
           C          1.779326097000    -0.698773122573     0.358348906013    12.000000000000

  Running in c1 symmetry.

  Rotational constants: A =      0.77697  B =      0.12306  C =      0.11532 [cm^-1]
  Rotational constants: A =  23293.05440  B =   3689.10373  C =   3457.27518 [MHz]
  Nuclear repulsion =  131.303073182548587

  Charge       = 0
  Multiplicity = 1
  Electrons    = 34
  Nalpha       = 17
  Nbeta        = 17

  ==> Algorithm <==

  SCF Algorithm Type is DF.
  DIIS enabled.
  MOM disabled.
  Fractional occupation disabled.
  Guess Type is READ.
  Energy threshold   = 1.00e-10
  Density threshold  = 1.00e-10
  Integral threshold = 0.00e+00

  ==> Primary Basis <==

  Basis Set: AUG-CC-PVTZ
    Blend: AUG-CC-PVTZ
    Number of shells: 146
    Number of basis function: 414
    Number of Cartesian functions: 470
    Spherical Harmonics?: true
    Max angular momentum: 3

   => Loading Basis Set <=

    Name: (AUG-CC-PVTZ AUX)
    Role: JKFIT
    Keyword: DF_BASIS_SCF
    atoms 1-3, 5-6, 8-9, 11-13 entry H          line    69 file /cbio/jclab/home/chayas/anaconda/envs/py35/share/psi4/basis/aug-cc-pvtz-jkfit.gbs 
    atoms 4, 7, 10, 14         entry C          line   161 file /cbio/jclab/home/chayas/anaconda/envs/py35/share/psi4/basis/aug-cc-pvtz-jkfit.gbs 

  Reading orbitals from file 180, no projection.

  ==> Pre-Iterations <==

   -------------------------------------------------------
    Irrep   Nso     Nmo     Nalpha   Nbeta   Ndocc  Nsocc
   -------------------------------------------------------
     A        414     414       0       0       0       0
   -------------------------------------------------------
    Total     414     414      17      17      17       0
   -------------------------------------------------------

  ==> Integral Setup <==

  ==> DFJK: Density-Fitted J/K Matrices <==

    J tasked:                  Yes
    K tasked:                  Yes
    wK tasked:                  No
    OpenMP threads:              1
    Integrals threads:           1
    Memory (MB):              3576
    Algorithm:                Core
    Integral Cache:           NONE
    Schwarz Cutoff:          1E-12
    Fitting Condition:       1E-12

   => Auxiliary Basis Set <=

  Basis Set: (AUG-CC-PVTZ AUX)
    Blend: AUG-CC-PVTZ-JKFIT
    Number of shells: 260
    Number of basis function: 876
    Number of Cartesian functions: 1074
    Spherical Harmonics?: true
    Max angular momentum: 4

  Minimum eigenvalue in the overlap matrix is 9.0704497785E-06.
  Using Symmetric Orthogonalization.

  SCF Guess: Orbitals guess was supplied from a previous computation.

  ==> Iterations <==

                           Total Energy        Delta E     RMS |[F,P]|

   @DF-RHF iter   0:  -157.27551544490626   -1.57276e+02   1.21225e-04 
   @DF-RHF iter   1:  -157.35114328154827   -7.56278e-02   4.95570e-05 
   @DF-RHF iter   2:  -157.35139315409452   -2.49873e-04   2.56079e-05 DIIS
   @DF-RHF iter   3:  -157.35144641296523   -5.32589e-05   2.77731e-06 DIIS
   @DF-RHF iter   4:  -157.35144779309638   -1.38013e-06   7.51582e-07 DIIS
   @DF-RHF iter   5:  -157.35144787844098   -8.53446e-08   2.52044e-07 DIIS
   @DF-RHF iter   6:  -157.35144788834458   -9.90360e-09   4.33712e-08 DIIS
   @DF-RHF iter   7:  -157.35144788876431   -4.19732e-10   6.80397e-09 DIIS
   @DF-RHF iter   8:  -157.35144788877497   -1.06581e-11   1.45380e-09 DIIS
   @DF-RHF iter   9:  -157.35144788877716   -2.18847e-12   3.39923e-10 DIIS
   @DF-RHF iter  10:  -157.35144788877631    8.52651e-13   7.49672e-11 DIIS

  ==> Post-Iterations <==

    Orbital Energies (a.u.)
    -----------------------

    Doubly Occupied:                                                      

       1A    -11.210416     2A    -11.209546     3A    -11.203434  
       4A    -11.202950     5A     -1.070264     6A     -0.978834  
       7A     -0.860543     8A     -0.789933     9A     -0.643954  
      10A     -0.584157    11A     -0.573112    12A     -0.572486  
      13A     -0.510855    14A     -0.501386    15A     -0.468015  
      16A     -0.465010    17A     -0.448280  

    Virtual:                                                              

      18A      0.032328    19A      0.037479    20A      0.039489  
      21A      0.040424    22A      0.058098    23A      0.058796  
      24A      0.060221    25A      0.061144    26A      0.077914  
      27A      0.082954    28A      0.102222    29A      0.112644  
      30A      0.122609    31A      0.130620    32A      0.138350  
      33A      0.141762    34A      0.142195    35A      0.145186  
      36A      0.148329    37A      0.160822    38A      0.166095  
      39A      0.166339    40A      0.172425    41A      0.200138  
      42A      0.202110    43A      0.215924    44A      0.226153  
      45A      0.240844    46A      0.249404    47A      0.253072  
      48A      0.266147    49A      0.277919    50A      0.282198  
      51A      0.288021    52A      0.311746    53A      0.318744  
      54A      0.331355    55A      0.338126    56A      0.346264  
      57A      0.355935    58A      0.357237    59A      0.358708  
      60A      0.366937    61A      0.367519    62A      0.370713  
      63A      0.381934    64A      0.387031    65A      0.389487  
      66A      0.391036    67A      0.396682    68A      0.399342  
      69A      0.403830    70A      0.409254    71A      0.415998  
      72A      0.429468    73A      0.440497    74A      0.444926  
      75A      0.447764    76A      0.459976    77A      0.460756  
      78A      0.463763    79A      0.468514    80A      0.485053  
      81A      0.488912    82A      0.498833    83A      0.501731  
      84A      0.507063    85A      0.515613    86A      0.517686  
      87A      0.521697    88A      0.529397    89A      0.541965  
      90A      0.543068    91A      0.546895    92A      0.554992  
      93A      0.566280    94A      0.573893    95A      0.581451  
      96A      0.587886    97A      0.598878    98A      0.611261  
      99A      0.612659   100A      0.633784   101A      0.640417  
     102A      0.653761   103A      0.676503   104A      0.678721  
     105A      0.697539   106A      0.720622   107A      0.757064  
     108A      0.772997   109A      0.796935   110A      0.811053  
     111A      0.821195   112A      0.827520   113A      0.834142  
     114A      0.841615   115A      0.845524   116A      0.859574  
     117A      0.863596   118A      0.877337   119A      0.879484  
     120A      0.888326   121A      0.894697   122A      0.901151  
     123A      0.915225   124A      0.918648   125A      0.921934  
     126A      0.926685   127A      0.929852   128A      0.935517  
     129A      0.945585   130A      0.955023   131A      0.962116  
     132A      0.975143   133A      0.979985   134A      0.990669  
     135A      0.995623   136A      1.015397   137A      1.029871  
     138A      1.031259   139A      1.044214   140A      1.069762  
     141A      1.076215   142A      1.077380   143A      1.087872  
     144A      1.092844   145A      1.101197   146A      1.108695  
     147A      1.117846   148A      1.134276   149A      1.149603  
     150A      1.153764   151A      1.159940   152A      1.168508  
     153A      1.176079   154A      1.191369   155A      1.208963  
     156A      1.215255   157A      1.225331   158A      1.238383  
     159A      1.243581   160A      1.246686   161A      1.256822  
     162A      1.266752   163A      1.273113   164A      1.286134  
     165A      1.291812   166A      1.303335   167A      1.309971  
     168A      1.317609   169A      1.336362   170A      1.352809  
     171A      1.366637   172A      1.388203   173A      1.407794  
     174A      1.416171   175A      1.426419   176A      1.439037  
     177A      1.452243   178A      1.477321   179A      1.490334  
     180A      1.501890   181A      1.517077   182A      1.527152  
     183A      1.539508   184A      1.554649   185A      1.566334  
     186A      1.584847   187A      1.599368   188A      1.605719  
     189A      1.623057   190A      1.638278   191A      1.645640  
     192A      1.663851   193A      1.679545   194A      1.685880  
     195A      1.698207   196A      1.701156   197A      1.709527  
     198A      1.711871   199A      1.727184   200A      1.733319  
     201A      1.738526   202A      1.756449   203A      1.757331  
     204A      1.764408   205A      1.771928   206A      1.776455  
     207A      1.784830   208A      1.808317   209A      1.819043  
     210A      1.849346   211A      1.857213   212A      1.877966  
     213A      1.896409   214A      1.907369   215A      1.920442  
     216A      1.934253   217A      1.959525   218A      1.965220  
     219A      1.984804   220A      1.995030   221A      2.001027  
     222A      2.017699   223A      2.023796   224A      2.032151  
     225A      2.047829   226A      2.054389   227A      2.077478  
     228A      2.085099   229A      2.096839   230A      2.154507  
     231A      2.171262   232A      2.181983   233A      2.187916  
     234A      2.211334   235A      2.234438   236A      2.254341  
     237A      2.263457   238A      2.278321   239A      2.292287  
     240A      2.301217   241A      2.318907   242A      2.335791  
     243A      2.341168   244A      2.345297   245A      2.365274  
     246A      2.380973   247A      2.410023   248A      2.438486  
     249A      2.461969   250A      2.473902   251A      2.507595  
     252A      2.532451   253A      2.591694   254A      2.610611  
     255A      2.624844   256A      2.666054   257A      2.792368  
     258A      2.887366   259A      2.971956   260A      3.041075  
     261A      3.205356   262A      3.245719   263A      3.293585  
     264A      3.364430   265A      3.397237   266A      3.427566  
     267A      3.442864   268A      3.457023   269A      3.475960  
     270A      3.487012   271A      3.515527   272A      3.561317  
     273A      3.571419   274A      3.585270   275A      3.593439  
     276A      3.603547   277A      3.625294   278A      3.659998  
     279A      3.680210   280A      3.682509   281A      3.695694  
     282A      3.712548   283A      3.725287   284A      3.741075  
     285A      3.744811   286A      3.780217   287A      3.786830  
     288A      3.797535   289A      3.824238   290A      3.830375  
     291A      3.847642   292A      3.867323   293A      3.879937  
     294A      3.886195   295A      3.902492   296A      3.912427  
     297A      3.960405   298A      3.972846   299A      3.973906  
     300A      3.982164   301A      3.998093   302A      4.004911  
     303A      4.017841   304A      4.027392   305A      4.049803  
     306A      4.056737   307A      4.070310   308A      4.087174  
     309A      4.149541   310A      4.168140   311A      4.180969  
     312A      4.192078   313A      4.225092   314A      4.231215  
     315A      4.238656   316A      4.259684   317A      4.267961  
     318A      4.284581   319A      4.307140   320A      4.318949  
     321A      4.342001   322A      4.362681   323A      4.374898  
     324A      4.408251   325A      4.436045   326A      4.457195  
     327A      4.507944   328A      4.517292   329A      4.553035  
     330A      4.566513   331A      4.596711   332A      4.640439  
     333A      4.646220   334A      4.667459   335A      4.701094  
     336A      4.705488   337A      4.725811   338A      4.737509  
     339A      4.755967   340A      4.787369   341A      4.797470  
     342A      4.849223   343A      4.857045   344A      4.867806  
     345A      4.880880   346A      4.928224   347A      4.936293  
     348A      4.947304   349A      4.969044   350A      4.992142  
     351A      5.024140   352A      5.039674   353A      5.053349  
     354A      5.092415   355A      5.110751   356A      5.130815  
     357A      5.160251   358A      5.174839   359A      5.203302  
     360A      5.228660   361A      5.239053   362A      5.253864  
     363A      5.280484   364A      5.294487   365A      5.308890  
     366A      5.320995   367A      5.353662   368A      5.371191  
     369A      5.415366   370A      5.432294   371A      5.444363  
     372A      5.449328   373A      5.482405   374A      5.495741  
     375A      5.551388   376A      5.568118   377A      5.569937  
     378A      5.622472   379A      5.630702   380A      5.658875  
     381A      5.676134   382A      5.718609   383A      5.745907  
     384A      5.765827   385A      5.795718   386A      5.819594  
     387A      5.861012   388A      5.903956   389A      5.942969  
     390A      5.999436   391A      6.058907   392A      6.110983  
     393A      6.140257   394A      6.167721   395A      6.190406  
     396A      6.216375   397A      6.234345   398A      6.295765  
     399A      6.302765   400A      6.333400   401A      6.355635  
     402A      6.456992   403A      6.556833   404A      6.599581  
     405A      6.736415   406A      6.777842   407A      6.827309  
     408A      6.848660   409A      6.862805   410A      6.983955  
     411A     17.999462   412A     18.109179   413A     18.815107  
     414A     19.353860  

    Final Occupation by Irrep:
              A 
    DOCC [    17 ]

  Energy converged.

  @DF-RHF Final Energy:  -157.35144788877631

   => Energetics <=

    Nuclear Repulsion Energy =            131.3030731825485873
    One-Electron Energy =                -470.7226953302910033
    Two-Electron Energy =                 182.0681742589661098
    DFT Exchange-Correlation Energy =       0.0000000000000000
    Empirical Dispersion Energy =           0.0000000000000000
    PCM Polarization Energy =               0.0000000000000000
    EFP Energy =                            0.0000000000000000
    Total Energy =                       -157.3514478887763062



Properties will be evaluated at   0.000000,   0.000000,   0.000000 Bohr

Properties computed using the SCF density matrix

  Nuclear Dipole Moment: (a.u.)
     X:    -0.0081      Y:     0.0014      Z:    -0.0005

  Electronic Dipole Moment: (a.u.)
     X:     0.0083      Y:    -0.0024      Z:     0.0019

  Dipole Moment: (a.u.)
     X:     0.0001      Y:    -0.0010      Z:     0.0014     Total:     0.0017

  Dipole Moment: (Debye)
     X:     0.0003      Y:    -0.0026      Z:     0.0034     Total:     0.0043


*** tstop() called on gpu-1-17.local at Wed Jun 14 14:28:31 2017
Module time:
	user time   =      66.58 seconds =       1.11 minutes
	system time =       0.47 seconds =       0.01 minutes
	total time  =         67 seconds =       1.12 minutes
Total time:
	user time   =     423.43 seconds =       7.06 minutes
	system time =       4.77 seconds =       0.08 minutes
	total time  =        429 seconds =       7.15 minutes

  //>>>>>>>>>>>>>>>>>>>>>>>>>>>>>>>>>>>//
  //               DFMP2               //
  //<<<<<<<<<<<<<<<<<<<<<<<<<<<<<<<<<<<//

   => Loading Basis Set <=

    Name: (AUG-CC-PVTZ AUX)
    Role: RIFIT
    Keyword: DF_BASIS_MP2
    atoms 1-3, 5-6, 8-9, 11-13 entry H          line    29 file /cbio/jclab/home/chayas/anaconda/envs/py35/share/psi4/basis/aug-cc-pvtz-ri.gbs 
    atoms 4, 7, 10, 14         entry C          line   147 file /cbio/jclab/home/chayas/anaconda/envs/py35/share/psi4/basis/aug-cc-pvtz-ri.gbs 

	 --------------------------------------------------------
	                          DF-MP2                         
	      2nd-Order Density-Fitted Moller-Plesset Theory     
	              RMP2 Wavefunction,   1 Threads             
	                                                         
	        Rob Parrish, Justin Turney, Andy Simmonett,      
	           Ed Hohenstein, and C. David Sherrill          
	 --------------------------------------------------------

   => Auxiliary Basis Set <=

  Basis Set: (AUG-CC-PVTZ AUX)
    Blend: AUG-CC-PVTZ-RI
    Number of shells: 252
    Number of basis function: 884
    Number of Cartesian functions: 1094
    Spherical Harmonics?: true
    Max angular momentum: 4

	 --------------------------------------------------------
	                 NBF =   414, NAUX =   884
	 --------------------------------------------------------
	   CLASS    FOCC     OCC    AOCC    AVIR     VIR    FVIR
	   PAIRS       0      17      17     397     397       0
	 --------------------------------------------------------


         ------------------------------------------------------------
                                     CPHF                           
                                  Rob Parrish                       
         ------------------------------------------------------------

  ==> Geometry <==

    Molecular point group: c1
    Full point group: C1

    Geometry (in Angstrom), charge = 0, multiplicity = 1:

       Center              X                  Y                   Z               Mass       
    ------------   -----------------  -----------------  -----------------  -----------------
           H         -2.402632705849     0.718772147068     0.527433004998     1.007825032070
           H         -2.020610907394     1.564927045751    -0.963441505830     1.007825032070
           H         -2.013419049182    -0.192515501467    -0.923602456487     1.007825032070
           C         -1.784117854177     0.700116849135    -0.358656397518    12.000000000000
           H          0.256881160002     1.344728678652    -0.644856060093     1.007825032070
           H         -0.185637878278     1.080722985301     1.042014562776     1.007825032070
           C         -0.291859476683     0.704474531681     0.033322212856    12.000000000000
           H         -0.248885726263    -1.348971067411     0.645468484342     1.007825032070
           H          0.194967842876    -1.082452845996    -1.042343337935     1.007825032070
           C          0.297381042712    -0.705941180481    -0.032967526618    12.000000000000
           H          2.188399906358    -1.699135326582     0.308422543915     1.007825032070
           H          1.889861917795    -0.324829365872     1.367078027018     1.007825032070
           H          2.332385730964    -0.059783135420    -0.316735202304     1.007825032070
           C          1.779326097000    -0.698773122573     0.358348906013    12.000000000000

  Nuclear repulsion =  131.303073182548587
  Reference energy  = -157.351447888776306

  ==> Basis Set <==

  Basis Set: AUG-CC-PVTZ
    Blend: AUG-CC-PVTZ
    Number of shells: 146
    Number of basis function: 414
    Number of Cartesian functions: 470
    Spherical Harmonics?: true
    Max angular momentum: 3

  ==> CGRSolver (by Rob Parrish) <==

   Number of roots    =         1
   Preconditioning    =    JACOBI
   Convergence cutoff =     1E-06
   Maximum iterations =       100

  ==> CPHFRHamiltonian (by Rob Parrish) <== 

  ==> DFJK: Density-Fitted J/K Matrices <==

    J tasked:                  Yes
    K tasked:                  Yes
    wK tasked:                  No
    OpenMP threads:              1
    Integrals threads:           1
    Memory (MB):              3576
    Algorithm:                Core
    Integral Cache:           NONE
    Schwarz Cutoff:          1E-12
    Fitting Condition:       1E-12

   => Auxiliary Basis Set <=

  Basis Set: (AUG-CC-PVTZ AUX)
    Blend: AUG-CC-PVTZ-JKFIT
    Number of shells: 260
    Number of basis function: 876
    Number of Cartesian functions: 1074
    Spherical Harmonics?: true
    Max angular momentum: 4

  ==> CPHF Iterations <==

  => Iterations <=

             Iter  Converged  Remaining    Residual
  CGR           1          0          1   8.296E-02
  CGR           2          0          1   1.328E-02
  CGR           3          0          1   3.489E-03
  CGR           4          0          1   8.150E-04
  CGR           5          0          1   1.202E-04
  CGR           6          0          1   2.205E-05
  CGR           7          0          1   3.963E-06
  CGR           8          1          0   9.357E-07

    CGRSolver converged.

  ==> DFCorrGrad: Density-Fitted Correlated Gradients <==

    OpenMP threads:              1
    Integrals threads:           1
    Memory (MB):              3576
    Schwarz Cutoff:          0E+00
    Fitting Condition:       1E-12

   => Auxiliary Basis Set <=

  Basis Set: (AUG-CC-PVTZ AUX)
    Blend: AUG-CC-PVTZ-JKFIT
    Number of shells: 260
    Number of basis function: 876
    Number of Cartesian functions: 1074
    Spherical Harmonics?: true
    Max angular momentum: 4

	-----------------------------------------------------------
	 ==================> DF-MP2 Energies <==================== 
	-----------------------------------------------------------
	 Reference Energy          =    -157.3514478887763062 [Eh]
	 Singles Energy            =      -0.0000000000000001 [Eh]
	 Same-Spin Energy          =      -0.1653433597092155 [Eh]
	 Opposite-Spin Energy      =      -0.6396819641250830 [Eh]
	 Correlation Energy        =      -0.8050253238342987 [Eh]
	 Total Energy              =    -158.1564732126105923 [Eh]
	-----------------------------------------------------------
	 ================> DF-SCS-MP2 Energies <================== 
	-----------------------------------------------------------
	 SCS Same-Spin Scale       =       0.3333333333333333 [-]
	 SCS Opposite-Spin Scale   =       1.2000000000000000 [-]
	 SCS Same-Spin Energy      =      -0.0551144532364052 [Eh]
	 SCS Opposite-Spin Energy  =      -0.7676183569500996 [Eh]
	 SCS Correlation Energy    =      -0.8227328101865049 [Eh]
	 SCS Total Energy          =    -158.1741806989628003 [Eh]
	-----------------------------------------------------------


  -Total Gradient:
     Atom            X                  Y                   Z
    ------   -----------------  -----------------  -----------------
       1        0.004257241955     0.001216124123    -0.001637802023
       2        0.003520150577    -0.002374597233     0.001252637937
       3        0.002551261167     0.002435559299     0.003058959783
       4       -0.012856318003    -0.003577249283    -0.004282776411
       5       -0.004008358695    -0.003222489277     0.000467755505
       6       -0.003227947290    -0.004177225414    -0.002756097578
       7        0.012064753018     0.015815744387     0.006896346085
       8        0.003726993308     0.004243035508    -0.000444478770
       9        0.002571532148     0.003213945868     0.003413680888
      10       -0.013227209797    -0.015981424378    -0.007380210221
      11       -0.003486172971     0.002596761402    -0.000501893053
      12       -0.002234131861    -0.001455203654    -0.003568276741
      13       -0.003440252867    -0.002255848024     0.001438254300
      14        0.013788459309     0.003522866674     0.004043900302


*** tstop() called on gpu-1-17.local at Wed Jun 14 14:33:04 2017
Module time:
	user time   =     335.96 seconds =       5.60 minutes
	system time =       3.94 seconds =       0.07 minutes
	total time  =        340 seconds =       5.67 minutes
Total time:
	user time   =     692.81 seconds =      11.55 minutes
	system time =       8.24 seconds =       0.14 minutes
	total time  =        702 seconds =      11.70 minutes

			-----------------------------------------
			 OPTKING 2.0: for geometry optimizations 
			  - R.A. King,  Bethel University        
			-----------------------------------------

	Previous internal coordinate definitions found.
	---Fragment 1 Geometry and Gradient---
	 H          -4.5403178120        1.3582825099        0.9967039329
	 H          -3.8184012361        2.9572835344       -1.8206405911
	 H          -3.8048105937       -0.3638015741       -1.7453556984
	 C          -3.3714941332        1.3230291059       -0.6777623671
	 H           0.4854350411        2.5411689257       -1.2186013487
	 H          -0.3508047498        2.0422704677        1.9691221501
	 C          -0.5515344802        1.3312639325        0.0629698564
	 H          -0.4703258610       -2.5491858786        1.2197586628
	 H           0.3684358278       -2.0455394307       -1.9697434451
	 C           0.5619687278       -1.3340354970       -0.0622995966
	 H           4.1354764922       -3.2109004300        0.5828341412
	 H           3.5713214536       -0.6138385414        2.5834030733
	 H           4.4075702678       -0.1129737533       -0.5985427890
	 C           3.3624390244       -1.3204898307        0.6771812924
	             0.0042572420        0.0012161241       -0.0016378020
	             0.0035201506       -0.0023745972        0.0012526379
	             0.0025512612        0.0024355593        0.0030589598
	            -0.0128563180       -0.0035772493       -0.0042827764
	            -0.0040083587       -0.0032224893        0.0004677555
	            -0.0032279473       -0.0041772254       -0.0027560976
	             0.0120647530        0.0158157444        0.0068963461
	             0.0037269933        0.0042430355       -0.0004444788
	             0.0025715321        0.0032139459        0.0034136809
	            -0.0132272098       -0.0159814244       -0.0073802102
	            -0.0034861730        0.0025967614       -0.0005018931
	            -0.0022341319       -0.0014552037       -0.0035682767
	            -0.0034402529       -0.0022558480        0.0014382543
	             0.0137884593        0.0035228667        0.0040439003

	---Fragment 1 Intrafragment Coordinates---
	 - Coordinate -           - BOHR/RAD -       - ANG/DEG -
	 R(1,4)           =         2.042359	       1.080770
	 R(2,4)           =         2.043694	       1.081476
	 R(3,4)           =         2.042772	       1.080988
	 R(4,7)           =         2.915634	       1.542887
	 R(5,7)           =         2.044896	       1.082112
	 R(6,7)           =         2.044319	       1.081807
	 R(7,10)          =         2.891263	       1.529991
	 R(8,10)          =         2.045946	       1.082668
	 R(9,10)          =         2.045002	       1.082169
	 R(10,14)         =         2.896489	       1.532756
	 R(11,14)         =         2.044539	       1.081924
	 R(12,14)         =         2.043690	       1.081474
	 R(13,14)         =         2.043983	       1.081629
	 B(1,4,2)         =         1.896039	     108.635060
	 B(1,4,3)         =         1.897938	     108.743855
	 B(1,4,7)         =         1.923217	     110.192232
	 B(2,4,3)         =         1.898294	     108.764258
	 B(2,4,7)         =         1.929772	     110.567777
	 B(3,4,7)         =         1.917998	     109.893188
	 B(4,7,5)         =         1.910186	     109.445582
	 B(4,7,6)         =         1.910104	     109.440885
	 B(4,7,10)        =         1.937862	     111.031314
	 B(5,7,6)         =         1.905816	     109.195186
	 B(5,7,10)        =         1.899670	     108.843066
	 B(6,7,10)        =         1.899903	     108.856438
	 B(7,10,8)        =         1.902913	     109.028868
	 B(7,10,9)        =         1.901488	     108.947213
	 B(7,10,14)       =         1.935837	     110.915294
	 B(8,10,9)        =         1.907196	     109.274266
	 B(8,10,14)       =         1.907764	     109.306805
	 B(9,10,14)       =         1.908431	     109.345043
	 B(10,14,11)      =         1.927790	     110.454255
	 B(10,14,12)      =         1.916190	     109.789586
	 B(10,14,13)      =         1.915364	     109.742273
	 B(11,14,12)      =         1.900860	     108.911243
	 B(11,14,13)      =         1.900856	     108.911053
	 B(12,14,13)      =         1.902466	     109.003268
	 D(1,4,7,5)       =        -2.445148	    -140.096671
	 D(1,4,7,6)       =        -0.357242	     -20.468464
	 D(1,4,7,10)      =         1.740516	      99.724223
	 D(2,4,7,5)       =        -0.348852	     -19.987769
	 D(2,4,7,6)       =         1.739054	      99.640438
	 D(2,4,7,10)      =        -2.446373	    -140.166875
	 D(3,4,7,5)       =         1.746883	     100.089030
	 D(3,4,7,6)       =        -2.448396	    -140.282763
	 D(3,4,7,10)      =        -0.350638	     -20.090076
	 D(4,7,10,8)      =        -1.038936	     -59.526649
	 D(4,7,10,9)      =         1.041169	      59.654597
	 D(4,7,10,14)     =        -3.140522	    -179.938680
	 D(5,7,10,8)      =         3.140495	     179.937130
	 D(5,7,10,9)      =        -1.062585	     -60.881624
	 D(5,7,10,14)     =         1.038909	      59.525099
	 D(6,7,10,8)      =         1.064867	      61.012413
	 D(6,7,10,9)      =        -3.138213	    -179.806341
	 D(6,7,10,14)     =        -1.036719	     -59.399618
	 D(7,10,14,11)    =        -3.141048	    -179.968787
	 D(7,10,14,12)    =         1.045633	      59.910334
	 D(7,10,14,13)    =        -1.045075	     -59.878401
	 D(8,10,14,11)    =         1.043433	      59.784321
	 D(8,10,14,12)    =        -1.053072	     -60.336557
	 D(8,10,14,13)    =         3.139406	     179.874708
	 D(9,10,14,11)    =        -1.043681	     -59.798538
	 D(9,10,14,12)    =        -3.140186	    -179.919416
	 D(9,10,14,13)    =         1.052291	      60.291849

	Current energy   :      -158.1564732126

	Energy change for the previous step:
		Projected    :        -0.0042504904
		Actual       :        -0.0030861925

	Performing BFGS update.
	Previous computed or guess Hessian on step 1.
	Steps to be used in Hessian update: 1
	Adding user-defined constraint: Fragment 1; Coordinate 46:
		Value =    -0.350638; Fixed value    =    -0.349070
		Force =     0.000823; Force constant =     0.525000
	Removing off-diagonal coupling between coordinate 46 and others.
	Taking RFO optimization step.
	Going to follow RFO solution 1.
	Using RFO vector 1.

	Determining step-restricting scale parameter for RS-RFO.
	Maximum step size allowed    0.10000

	 Iter      |step|        alpha        rfo_root  
	------------------------------------------------
	    0     0.18150       1.00000           1
	    1     0.14542       5.25866           1
	    2     0.11725      14.72433           1
	    3     0.10370      23.53736           1
	    4     0.10023      26.56110           1
	    5     0.10000      26.77547           1
	------------------------------------------------
	Norm of target step-size    0.10000
	Projected energy change by RFO approximation:        -0.0007339737

	Back-transformation to cartesian coordinates...
	Successfully converged to displaced geometry.

	--- Internal Coordinate Step in ANG or DEG, aJ/ANG or AJ/DEG ---
	 ---------------------------------------------------------------------------
	   Coordinate                Previous        Force       Change         New 
	   ----------                --------       ------       ------       ------
	    1 R(1,4)          =      1.080770     0.030963     0.005521     1.086290
	    2 R(2,4)          =      1.081476     0.027757     0.004854     1.086330
	    3 R(3,4)          =      1.080988     0.034199     0.006301     1.087289
	    4 R(4,7)          =      1.542887    -0.023563    -0.007690     1.535197
	    5 R(5,7)          =      1.082112     0.034870     0.006372     1.088484
	    6 R(6,7)          =      1.081807     0.035753     0.006528     1.088335
	    7 R(7,10)         =      1.529991    -0.040219    -0.009742     1.520249
	    8 R(8,10)         =      1.082668     0.038550     0.007033     1.089701
	    9 R(9,10)         =      1.082169     0.037450     0.006849     1.089018
	   10 R(10,14)        =      1.532756    -0.039927    -0.010563     1.522193
	   11 R(11,14)        =      1.081924     0.030450     0.005240     1.087164
	   12 R(12,14)        =      1.081474     0.033447     0.006052     1.087527
	   13 R(13,14)        =      1.081629     0.032868     0.005969     1.087599
	   14 B(1,4,2)        =    108.635060    -0.000201    -0.763194   107.871865
	   15 B(1,4,3)        =    108.743855    -0.000199    -1.025941   107.717913
	   16 B(1,4,7)        =    110.192232     0.000193     0.738996   110.931228
	   17 B(2,4,3)        =    108.764258    -0.000162    -0.536925   108.227333
	   18 B(2,4,7)        =    110.567777     0.000234     1.004788   111.572565
	   19 B(3,4,7)        =    109.893188     0.000119     0.488129   110.381317
	   20 B(4,7,5)        =    109.445582     0.000003     0.252640   109.698222
	   21 B(4,7,6)        =    109.440885    -0.000016     0.207569   109.648454
	   22 B(4,7,10)       =    111.031314     0.000295     1.109615   112.140929
	   23 B(5,7,6)        =    109.195186    -0.000091    -1.171076   108.024109
	   24 B(5,7,10)       =    108.843066    -0.000101    -0.321816   108.521250
	   25 B(6,7,10)       =    108.856438    -0.000095    -0.146228   108.710210
	   26 B(7,10,8)       =    109.028868    -0.000069    -0.106817   108.922051
	   27 B(7,10,9)       =    108.947213    -0.000094    -0.249236   108.697977
	   28 B(7,10,14)      =    110.915294     0.000279     1.060234   111.975528
	   29 B(8,10,9)       =    109.274266    -0.000077    -1.079342   108.194923
	   30 B(8,10,14)      =    109.306805    -0.000028     0.136768   109.443573
	   31 B(9,10,14)      =    109.345043    -0.000014     0.181898   109.526941
	   32 B(10,14,11)     =    110.454255     0.000207     0.827499   111.281753
	   33 B(10,14,12)     =    109.789586     0.000126     0.593493   110.383079
	   34 B(10,14,13)     =    109.742273     0.000115     0.555633   110.297906
	   35 B(11,14,12)     =    108.911243    -0.000157    -0.648577   108.262666
	   36 B(11,14,13)     =    108.911053    -0.000152    -0.635238   108.275815
	   37 B(12,14,13)     =    109.003268    -0.000148    -0.755767   108.247501
	   38 D(1,4,7,5)      =   -140.096671    -0.000000    -0.119621  -140.216292
	   39 D(1,4,7,6)      =    -20.468464    -0.000028    -1.271609   -21.740073
	   40 D(1,4,7,10)     =     99.724223    -0.000014    -0.600017    99.124206
	   41 D(2,4,7,5)      =    -19.987769     0.000006     0.072742   -19.915027
	   42 D(2,4,7,6)      =     99.640438    -0.000022    -1.079246    98.561192
	   43 D(2,4,7,10)     =   -140.166875    -0.000009    -0.407654  -140.574529
	   44 D(3,4,7,5)      =    100.089030     0.000011     0.373985   100.463015
[...]

   => Auxiliary Basis Set <=

  Basis Set: (AUG-CC-PVTZ AUX)
    Blend: AUG-CC-PVTZ-JKFIT
    Number of shells: 260
    Number of basis function: 876
    Number of Cartesian functions: 1074
    Spherical Harmonics?: true
    Max angular momentum: 4

	-----------------------------------------------------------
	 ==================> DF-MP2 Energies <==================== 
	-----------------------------------------------------------
	 Reference Energy          =    -157.3526907542342599 [Eh]
	 Singles Energy            =      -0.0000000000000000 [Eh]
	 Same-Spin Energy          =      -0.1654651907160813 [Eh]
	 Opposite-Spin Energy      =      -0.6397240417548737 [Eh]
	 Correlation Energy        =      -0.8051892324709551 [Eh]
	 Total Energy              =    -158.1578799867052112 [Eh]
	-----------------------------------------------------------
	 ================> DF-SCS-MP2 Energies <================== 
	-----------------------------------------------------------
	 SCS Same-Spin Scale       =       0.3333333333333333 [-]
	 SCS Opposite-Spin Scale   =       1.2000000000000000 [-]
	 SCS Same-Spin Energy      =      -0.0551550635720271 [Eh]
	 SCS Opposite-Spin Energy  =      -0.7676688501058485 [Eh]
	 SCS Correlation Energy    =      -0.8228239136778757 [Eh]
	 SCS Total Energy          =    -158.1755146679121253 [Eh]
	-----------------------------------------------------------


  -Total Gradient:
     Atom            X                  Y                   Z
    ------   -----------------  -----------------  -----------------
       1        0.000022221551    -0.000046043487    -0.000004337935
       2        0.000014214486    -0.000039022959     0.000051918338
       3       -0.000687748468    -0.001531503838     0.002794938294
       4        0.001152941943     0.002134729168    -0.004423508680
       5       -0.000008269918     0.000051292947     0.000026527459
       6        0.000039789778    -0.000006869650    -0.000080900599
       7       -0.001064049692    -0.000893222696     0.003808806271
       8       -0.000002577566    -0.000024529672    -0.000051637829
       9       -0.000022847973    -0.000003587884     0.000039091723
      10        0.000567602444     0.000363047173    -0.002099951767
      11       -0.000005349294     0.000027864694    -0.000014913809
      12       -0.000030212866    -0.000013878903    -0.000045677011
      13       -0.000011093080    -0.000015766290     0.000034794751
      14        0.000035378651    -0.000002508602    -0.000035149203


*** tstop() called on gpu-1-17.local at Wed Jun 14 15:24:04 2017
Module time:
	user time   =     377.38 seconds =       6.29 minutes
	system time =       4.55 seconds =       0.08 minutes
	total time  =        382 seconds =       6.37 minutes
Total time:
	user time   =    3706.87 seconds =      61.78 minutes
	system time =      51.06 seconds =       0.85 minutes
	total time  =       3762 seconds =      62.70 minutes

			-----------------------------------------
			 OPTKING 2.0: for geometry optimizations 
			  - R.A. King,  Bethel University        
			-----------------------------------------

	Previous internal coordinate definitions found.
	---Fragment 1 Geometry and Gradient---
	 H          -4.5534141208        1.2890231088        1.0078718765
	 H          -3.9004820516        2.9580954969       -1.7815605272
	 H          -3.8533153407       -0.3799790857       -1.7394694828
	 C          -3.3721462174        1.3127243409       -0.6745390724
	 H           0.4762485291        2.5199847542       -1.2688622686
	 H          -0.3045976305        2.1163755377        1.9057884605
	 C          -0.5729085012        1.3107486156        0.0295309365
	 H          -0.4763951387       -2.5707008641        1.1712853827
	 H           0.3929819781       -2.0505071007       -1.9725146977
	 C           0.5925035051       -1.3075446189       -0.0603423309
	 H           4.1679648972       -3.1976254035        0.5954628692
	 H           3.5777049480       -0.6348195198        2.6319640092
	 H           4.4492024732       -0.0783830093       -0.5248557447
	 C           3.3545753844       -1.3135317225        0.7032416033
	             0.0000222216       -0.0000460435       -0.0000043379
	             0.0000142145       -0.0000390230        0.0000519183
	            -0.0006877485       -0.0015315038        0.0027949383
	             0.0011529419        0.0021347292       -0.0044235087
	            -0.0000082699        0.0000512929        0.0000265275
	             0.0000397898       -0.0000068697       -0.0000809006
	            -0.0010640497       -0.0008932227        0.0038088063
	            -0.0000025776       -0.0000245297       -0.0000516378
	            -0.0000228480       -0.0000035879        0.0000390917
	             0.0005676024        0.0003630472       -0.0020999518
	            -0.0000053493        0.0000278647       -0.0000149138
	            -0.0000302129       -0.0000138789       -0.0000456770
	            -0.0000110931       -0.0000157663        0.0000347948
	             0.0000353787       -0.0000025086       -0.0000351492

	---Fragment 1 Intrafragment Coordinates---
	 - Coordinate -           - BOHR/RAD -       - ANG/DEG -
	 R(1,4)           =         2.055836	       1.087902
	 R(2,4)           =         2.052287	       1.086023
	 R(3,4)           =         2.056902	       1.088466
	 R(4,7)           =         2.886425	       1.527430
	 R(5,7)           =         2.061264	       1.090774
	 R(6,7)           =         2.059458	       1.089818
	 R(7,10)          =         2.867354	       1.517339
	 R(8,10)          =         2.062769	       1.091570
	 R(9,10)          =         2.061117	       1.090696
	 R(10,14)         =         2.865683	       1.516454
	 R(11,14)         =         2.055001	       1.087460
	 R(12,14)         =         2.056795	       1.088409
	 R(13,14)         =         2.057188	       1.088617
	 B(1,4,2)         =         1.878374	     107.622904
	 B(1,4,3)         =         1.854373	     106.247769
	 B(1,4,7)         =         1.936504	     110.953530
	 B(2,4,3)         =         1.896819	     108.679727
	 B(2,4,7)         =         1.962523	     112.444309
	 B(3,4,7)         =         1.931132	     110.645692
	 B(4,7,5)         =         1.917248	     109.850241
	 B(4,7,6)         =         1.926559	     110.383693
	 B(4,7,10)        =         1.968328	     112.776914
	 B(5,7,6)         =         1.852580	     106.144987
	 B(5,7,10)        =         1.885016	     108.003445
	 B(6,7,10)        =         1.910077	     109.439335
	 B(7,10,8)        =         1.906933	     109.259215
	 B(7,10,9)        =         1.895354	     108.595776
	 B(7,10,14)       =         1.966332	     112.662513
	 B(8,10,9)        =         1.857750	     106.441208
	 B(8,10,14)       =         1.916731	     109.820602
	 B(9,10,14)       =         1.917450	     109.861771
	 B(10,14,11)      =         1.949202	     111.681061
	 B(10,14,12)      =         1.932361	     110.716146
	 B(10,14,13)      =         1.931076	     110.642515
	 B(11,14,12)      =         1.884710	     107.985952
	 B(11,14,13)      =         1.884468	     107.972047
	 B(12,14,13)      =         1.879639	     107.695385
	 D(1,4,7,5)       =        -2.480408	    -142.116922
	 D(1,4,7,6)       =        -0.443377	     -25.403640
	 D(1,4,7,10)      =         1.699149	      97.354059
	 D(2,4,7,5)       =        -0.375660	     -21.523714
	 D(2,4,7,6)       =         1.661371	      95.189568
	 D(2,4,7,10)      =        -2.479288	    -142.052734
	 D(3,4,7,5)       =         1.748968	     100.208467
	 D(3,4,7,6)       =        -2.497187	    -143.078251
	 D(3,4,7,10)      =        -0.354661	     -20.320552
	 D(4,7,10,8)      =        -0.980931	     -56.203191
	 D(4,7,10,9)      =         1.038661	      59.510902
	 D(4,7,10,14)     =        -3.116373	    -178.555003
	 D(5,7,10,8)      =        -3.102915	    -177.783921
	 D(5,7,10,9)      =        -1.083323	     -62.069829
	 D(5,7,10,14)     =         1.044829	      59.864267
	 D(6,7,10,8)      =         1.170781	      67.080834
	 D(6,7,10,9)      =        -3.092812	    -177.205074
	 D(6,7,10,14)     =        -0.964661	     -55.270978
	 D(7,10,14,11)    =        -3.123567	    -178.967196
	 D(7,10,14,12)    =         1.058725	      60.660482
	 D(7,10,14,13)    =        -1.023857	     -58.662683
	 D(8,10,14,11)    =         1.029700	      58.997457
	 D(8,10,14,12)    =        -1.071193	     -61.374865
	 D(8,10,14,13)    =         3.129410	     179.301969
	 D(9,10,14,11)    =        -1.007956	     -57.751604
	 D(9,10,14,12)    =        -3.108849	    -178.123926
	 D(9,10,14,13)    =         1.091754	      62.552909

	Current energy   :      -158.1578799867

	Energy change for the previous step:
		Projected    :        -0.0000019001
		Actual       :        -0.0000018087

	Performing BFGS update.
	Previous computed or guess Hessian on step 1.
	Steps to be used in Hessian update: 9 8
	Adding user-defined constraint: Fragment 1; Coordinate 46:
		Value =    -0.354661; Fixed value    =    -0.349070
		Force =     0.004053; Force constant =     0.725000
	Removing off-diagonal coupling between coordinate 46 and others.
	Taking RFO optimization step.
	Going to follow RFO solution 1.
	Rejecting RFO root 1 because normalization gives large value.
	Rejecting RFO root 2 because normalization gives large value.
	Rejecting RFO root 3 because normalization gives large value.
	Using RFO vector 4.
	Norm of target step-size    0.00160
	Projected energy change by RFO approximation:        -0.0000002473

	Back-transformation to cartesian coordinates...
	Successfully converged to displaced geometry.

	--- Internal Coordinate Step in ANG or DEG, aJ/ANG or AJ/DEG ---
	 ---------------------------------------------------------------------------
	   Coordinate                Previous        Force       Change         New 
	   ----------                --------       ------       ------       ------
	    1 R(1,4)          =      1.087902     0.000130     0.000005     1.087906
	    2 R(2,4)          =      1.086023     0.000519    -0.000034     1.085990
	    3 R(3,4)          =      1.088466     0.000213    -0.000015     1.088451
	    4 R(4,7)          =      1.527430     0.000828     0.000129     1.527559
	    5 R(5,7)          =      1.090774    -0.000076    -0.000030     1.090744
	    6 R(6,7)          =      1.089818     0.000587     0.000053     1.089872
	    7 R(7,10)         =      1.517339     0.000148     0.000055     1.517394
	    8 R(8,10)         =      1.091570     0.000119    -0.000043     1.091527
	    9 R(9,10)         =      1.090696     0.000270    -0.000010     1.090686
	   10 R(10,14)        =      1.516454     0.000223     0.000091     1.516545
	   11 R(11,14)        =      1.087460     0.000221    -0.000004     1.087455
	   12 R(12,14)        =      1.088409     0.000418    -0.000036     1.088373
	   13 R(13,14)        =      1.088617     0.000298    -0.000036     1.088582
	   14 B(1,4,2)        =    107.622904    -0.000001     0.001361   107.624265
	   15 B(1,4,3)        =    106.247769    -0.000001    -0.005004   106.242765
	   16 B(1,4,7)        =    110.953530     0.000001    -0.007829   110.945701
	   17 B(2,4,3)        =    108.679727     0.000000    -0.000243   108.679484
	   18 B(2,4,7)        =    112.444309    -0.000000     0.013879   112.458188
	   19 B(3,4,7)        =    110.645692     0.000001    -0.003004   110.642688
	   20 B(4,7,5)        =    109.850241     0.000001    -0.002448   109.847792
	   21 B(4,7,6)        =    110.383693    -0.000004    -0.005473   110.378220
	   22 B(4,7,10)       =    112.776914     0.000003    -0.002425   112.774489
	   23 B(5,7,6)        =    106.144987     0.000002     0.019758   106.164746
	   24 B(5,7,10)       =    108.003445    -0.000006     0.002675   108.006120
	   25 B(6,7,10)       =    109.439335     0.000003    -0.010566   109.428769
	   26 B(7,10,8)       =    109.259215    -0.000002    -0.008987   109.250228
	   27 B(7,10,9)       =    108.595776     0.000001     0.002687   108.598462
	   28 B(7,10,14)      =    112.662513    -0.000000    -0.002375   112.660138
	   29 B(8,10,9)       =    106.441208     0.000002     0.023385   106.464593
	   30 B(8,10,14)      =    109.820602    -0.000001    -0.015249   109.805353
	   31 B(9,10,14)      =    109.861771    -0.000000     0.002187   109.863958
	   32 B(10,14,11)     =    111.681061    -0.000000    -0.002109   111.678953
	   33 B(10,14,12)     =    110.716146     0.000003    -0.003259   110.712887
	   34 B(10,14,13)     =    110.642515    -0.000002    -0.007975   110.634541
	   35 B(11,14,12)     =    107.985952    -0.000001     0.003289   107.989241
	   36 B(11,14,13)     =    107.972047     0.000001     0.002853   107.974900
	   37 B(12,14,13)     =    107.695385    -0.000000     0.007960   107.703345
	   38 D(1,4,7,5)      =   -142.116922     0.000000    -0.011869  -142.128791
	   39 D(1,4,7,6)      =    -25.403640     0.000000     0.007530   -25.396109
	   40 D(1,4,7,10)     =     97.354059     0.000001    -0.011943    97.342116
	   41 D(2,4,7,5)      =    -21.523714    -0.000000    -0.006089   -21.529804
	   42 D(2,4,7,6)      =     95.189568     0.000000     0.013310    95.202878
	   43 D(2,4,7,10)     =   -142.052734     0.000001    -0.006164  -142.058897
	   44 D(3,4,7,5)      =    100.208467     0.000000     0.001133   100.209600
	   45 D(3,4,7,6)      =   -143.078251     0.000000     0.020532  -143.057719
	   46 D(3,4,7,10)     =    -20.320552     0.000001     0.001058   -20.319494
	   47 D(4,7,10,8)     =    -56.203191    -0.000000    -0.012796   -56.215987
	   48 D(4,7,10,9)     =     59.510902     0.000000     0.011635    59.522537
	   49 D(4,7,10,14)    =   -178.555003     0.000000     0.014732  -178.540271
	   50 D(5,7,10,8)     =   -177.783921    -0.000000    -0.010015  -177.793936
	   51 D(5,7,10,9)     =    -62.069829     0.000000     0.014416   -62.055412
	   52 D(5,7,10,14)    =     59.864267     0.000000     0.017513    59.881780
	   53 D(6,7,10,8)     =     67.080834    -0.000000    -0.029299    67.051535
	   54 D(6,7,10,9)     =   -177.205074     0.000000    -0.004867  -177.209941
	   55 D(6,7,10,14)    =    -55.270978     0.000000    -0.001770   -55.272749
	   56 D(7,10,14,11)   =   -178.967196    -0.000000    -0.022957  -178.990153
	   57 D(7,10,14,12)   =     60.660482    -0.000000    -0.023489    60.636993
	   58 D(7,10,14,13)   =    -58.662683    -0.000001    -0.026180   -58.688863
	   59 D(8,10,14,11)   =     58.997457     0.000000     0.001144    58.998601
	   60 D(8,10,14,12)   =    -61.374865     0.000000     0.000612   -61.374254
	   61 D(8,10,14,13)   =    179.301969     0.000000    -0.002079   179.299890
	   62 D(9,10,14,11)   =    -57.751604    -0.000000    -0.019584   -57.771188
	   63 D(9,10,14,12)   =   -178.123926    -0.000000    -0.020116  -178.144042
	   64 D(9,10,14,13)   =     62.552909    -0.000000    -0.022807    62.530102
	 ---------------------------------------------------------------------------
	Successfully symmetrized geometry.
	 Forces used to impose fixed constraints are not included.
	  Forces zeroed: 46 

  ==> Convergence Check <==

  Measures of convergence in internal coordinates in au.
  Criteria marked as inactive (o), active & met (*), and active & unmet ( ).
  ---------------------------------------------------------------------------------------------
   Step     Total Energy     Delta E     MAX Force     RMS Force      MAX Disp      RMS Disp   
  ---------------------------------------------------------------------------------------------
    Convergence Criteria    1.00e-06 *    3.00e-04 *             o    1.20e-03 *             o
  ---------------------------------------------------------------------------------------------
     10    -158.15787999   -1.81e-06      1.00e-04 *    3.02e-05 o    5.11e-04 *    2.00e-04 o  ~
  ---------------------------------------------------------------------------------------------


  **** Optimization is complete! (in 10 steps) ****

  ==> Optimization Summary <==

  Measures of convergence in internal coordinates in au.
  --------------------------------------------------------------------------------------------------------------- ~
   Step         Total Energy             Delta E       MAX Force       RMS Force        MAX Disp        RMS Disp  ~
  --------------------------------------------------------------------------------------------------------------- ~
      1    -158.153387020147   -158.153387020147      0.01329090      0.00566757      0.02670792      0.01250807  ~
      2    -158.156473212611     -0.003086192463      0.00488175      0.00235299      0.03014196      0.01252389  ~
      3    -158.157555132588     -0.001081919977      0.00178964      0.00070333      0.04003348      0.01251483  ~
      4    -158.157839487073     -0.000284354485      0.00096708      0.00021365      0.03750201      0.01192371  ~
      5    -158.157880478845     -0.000040991771      0.00022905      0.00005887      0.00614128      0.00290791  ~
      6    -158.157884103763     -0.000003624919      0.00004998      0.00001890      0.01296161      0.00484324  ~
      7    -158.157874759386      0.000009344377      0.00025536      0.00007595      0.01170126      0.00385951  ~
      8    -158.157877123141     -0.000002363755      0.00016455      0.00004220      0.00558392      0.00183772  ~
      9    -158.157878178017     -0.000001054876      0.00008787      0.00002825      0.00475453      0.00197734  ~
     10    -158.157879986705     -0.000001808688      0.00010048      0.00003139      0.00051136      0.00020032  ~
  --------------------------------------------------------------------------------------------------------------- ~

	Writing optimization data to binary file.
	Final energy is   -158.1578799867052
	Final (previous) structure:
	Cartesian Geometry (in Angstrom)
	    H    -2.4095629740   0.6821216505   0.5333428262
	    H    -2.0640462042   1.5653567178  -0.9427612267
	    H    -2.0390866558  -0.2010762719  -0.9204876053
	    C    -1.7844629223   0.6946638024  -0.3569507034
	    H     0.2520198672   1.3335184979  -0.6714529934
	    H    -0.1611861238   1.1199376994   1.0084998177
	    C    -0.3031701214   0.6936182936   0.0156270985
	    H    -0.2520974497  -1.3603563074   0.6198175293
	    H     0.2079571062  -1.0850816238  -1.0438098216
	    C     0.3135393509  -0.6919228115  -0.0319317862
	    H     2.2055920298  -1.6921104851   0.3151053790
	    H     1.8932399175  -0.3359320215   1.3927753675
	    H     2.3544165452  -0.0414785020  -0.2777416979
	    C     1.7751648379  -0.6950910503   0.3721394286
	Saving final (previous) structure.
			--------------------------
			 OPTKING Finished Execution 
			--------------------------

    Final optimized geometry and variables:
    Molecular point group: c1
    Full point group: C1

    Geometry (in Angstrom), charge = 0, multiplicity = 1:

    H           -2.409562973987     0.682121650520     0.533342826212
    H           -2.064046204234     1.565356717807    -0.942761226712
    H           -2.039086655787    -0.201076271872    -0.920487605318
    C           -1.784462922259     0.694663802354    -0.356950703432
    H            0.252019867209     1.333518497903    -0.671452993373
    H           -0.161186123842     1.119937699364     1.008499817708
    C           -0.303170121429     0.693618293551     0.015627098545
    H           -0.252097449707    -1.360356307371     0.619817529285
    H            0.207957106210    -1.085081623759    -1.043809821646
    C            0.313539350885    -0.691922811529    -0.031931786223
    H            2.205592029815    -1.692110485116     0.315105378968
    H            1.893239917520    -0.335932021455     1.392775367472
    H            2.354416545204    -0.041478502044    -0.277741697897
    C            1.775164837937    -0.695091050287     0.372139428576

	Cleaning optimization helper files.

*** Psi4 exiting successfully. Buy a developer a beer!
