
    -----------------------------------------------------------------------
          Psi4: An Open-Source Ab Initio Electronic Structure Package
                               Psi4 1.1 release

                         Git: Rev {HEAD} add49b9 


    R. M. Parrish, L. A. Burns, D. G. A. Smith, A. C. Simmonett,
    A. E. DePrince III, E. G. Hohenstein, U. Bozkaya, A. Yu. Sokolov,
    R. Di Remigio, R. M. Richard, J. F. Gonthier, A. M. James,
    H. R. McAlexander, A. Kumar, M. Saitow, X. Wang, B. P. Pritchard,
    P. Verma, H. F. Schaefer III, K. Patkowski, R. A. King, E. F. Valeev,
    F. A. Evangelista, J. M. Turney, T. D. Crawford, and C. D. Sherrill,
    J. Chem. Theory Comput. in press (2017).
    (doi: 10.1021/acs.jctc.7b00174)

    -----------------------------------------------------------------------


    Psi4 started on: Wednesday, 14 June 2017 02:20PM

    Process ID:  26036
    PSIDATADIR: /cbio/jclab/home/chayas/anaconda/envs/py35/share/psi4
    Memory:     500.0 MiB
    Threads:    1
    
  ==> Input File <==

--------------------------------------------------------------------------

memory 5000 mb

molecule butane {
  symmetry C1
  0 1 
  H      1.604   0.760   -8.260
  H      1.745   2.388   -8.880
  H      2.043   1.024   -9.930
  C      2.142   1.395   -8.932
  H      4.169   2.051   -9.210
  H      3.731   1.788   -7.539
  C      3.631   1.416   -8.537
  H      3.665   -0.647   -7.940
  H      4.104   -0.384   -9.610
  C      4.203   -0.012   -8.612
  H      6.088   -0.983   -8.270
  H      5.791   0.381   -7.220
  H      6.230   0.644   -8.890
  C      5.691   0.009   -8.218
  units Angstrom
}

dih_string = "10 7 4 3 300"
set optking fixed_dihedral = $dih_string

optimize('MP2/aug-cc-pvtz')
--------------------------------------------------------------------------

  Memory set to   4.657 GiB by Python driver.
gradient() will perform analytic gradient computation.

*** tstart() called on cpu-6-2.local
*** at Wed Jun 14 14:20:22 2017

    SCF Algorithm Type (re)set to DF.

*** tstart() called on cpu-6-2.local
*** at Wed Jun 14 14:20:22 2017

   => Loading Basis Set <=

    Name: AUG-CC-PVTZ
    Role: ORBITAL
    Keyword: BASIS
    atoms 1-3, 5-6, 8-9, 11-13 entry H          line    34 file /cbio/jclab/home/chayas/anaconda/envs/py35/share/psi4/basis/aug-cc-pvtz.gbs 
    atoms 4, 7, 10, 14         entry C          line   221 file /cbio/jclab/home/chayas/anaconda/envs/py35/share/psi4/basis/aug-cc-pvtz.gbs 


         ---------------------------------------------------------
                                   SCF
            by Justin Turney, Rob Parrish, and Andy Simmonett
                              RHF Reference
                        1 Threads,   4768 MiB Core
         ---------------------------------------------------------

  ==> Geometry <==

    Molecular point group: c1
    Full point group: C1

    Geometry (in Angstrom), charge = 0, multiplicity = 1:

       Center              X                  Y                   Z               Mass       
    ------------   -----------------  -----------------  -----------------  -----------------
           H         -2.312793382205     0.057965294236     0.314776029323     1.007825032070
           H         -2.171793382205     1.685965294236    -0.305223970677     1.007825032070
           H         -1.873793382205     0.321965294236    -1.355223970677     1.007825032070
           C         -1.774793382205     0.692965294236    -0.357223970677    12.000000000000
           H          0.252206617795     1.348965294236    -0.635223970677     1.007825032070
           H         -0.185793382205     1.085965294236     1.035776029323     1.007825032070
           C         -0.285793382205     0.713965294236     0.037776029323    12.000000000000
           H         -0.251793382205    -1.349034705764     0.634776029323     1.007825032070
           H          0.187206617795    -1.086034705764    -1.035223970677     1.007825032070
           C          0.286206617795    -0.714034705764    -0.037223970677    12.000000000000
           H          2.171206617795    -1.685034705764     0.304776029323     1.007825032070
           H          1.874206617795    -0.321034705764     1.354776029323     1.007825032070
           H          2.313206617795    -0.058034705764    -0.315223970677     1.007825032070
           C          1.774206617795    -0.693034705764     0.356776029323    12.000000000000

  Running in c1 symmetry.

  Rotational constants: A =      0.76949  B =      0.12464  C =      0.11638 [cm^-1]
  Rotational constants: A =  23068.84256  B =   3736.71882  C =   3488.92174 [MHz]
  Nuclear repulsion =  131.819965675319082

  Charge       = 0
  Multiplicity = 1
  Electrons    = 34
  Nalpha       = 17
  Nbeta        = 17

  ==> Algorithm <==

  SCF Algorithm Type is DF.
  DIIS enabled.
  MOM disabled.
  Fractional occupation disabled.
  Guess Type is SAD.
  Energy threshold   = 1.00e-10
  Density threshold  = 1.00e-10
  Integral threshold = 0.00e+00

  ==> Primary Basis <==

  Basis Set: AUG-CC-PVTZ
    Blend: AUG-CC-PVTZ
    Number of shells: 146
    Number of basis function: 414
    Number of Cartesian functions: 470
    Spherical Harmonics?: true
    Max angular momentum: 3

   => Loading Basis Set <=

    Name: (AUG-CC-PVTZ AUX)
    Role: JKFIT
    Keyword: DF_BASIS_SCF
    atoms 1-3, 5-6, 8-9, 11-13 entry H          line    69 file /cbio/jclab/home/chayas/anaconda/envs/py35/share/psi4/basis/aug-cc-pvtz-jkfit.gbs 
    atoms 4, 7, 10, 14         entry C          line   161 file /cbio/jclab/home/chayas/anaconda/envs/py35/share/psi4/basis/aug-cc-pvtz-jkfit.gbs 

  ==> Pre-Iterations <==

   -------------------------------------------------------
    Irrep   Nso     Nmo     Nalpha   Nbeta   Ndocc  Nsocc
   -------------------------------------------------------
     A        414     414       0       0       0       0
   -------------------------------------------------------
    Total     414     414      17      17      17       0
   -------------------------------------------------------

  ==> Integral Setup <==

  ==> DFJK: Density-Fitted J/K Matrices <==

    J tasked:                  Yes
    K tasked:                  Yes
    wK tasked:                  No
    OpenMP threads:              1
    Integrals threads:           1
    Memory (MB):              3576
    Algorithm:                Core
    Integral Cache:           NONE
    Schwarz Cutoff:          1E-12
    Fitting Condition:       1E-12

   => Auxiliary Basis Set <=

  Basis Set: (AUG-CC-PVTZ AUX)
    Blend: AUG-CC-PVTZ-JKFIT
    Number of shells: 260
    Number of basis function: 876
    Number of Cartesian functions: 1074
    Spherical Harmonics?: true
    Max angular momentum: 4

  Minimum eigenvalue in the overlap matrix is 7.7084675764E-06.
  Using Symmetric Orthogonalization.

  SCF Guess: Superposition of Atomic Densities via on-the-fly atomic UHF.

  ==> Iterations <==

                           Total Energy        Delta E     RMS |[F,P]|

   @DF-RHF iter   0:  -158.77595246801565   -1.58776e+02   9.13315e-03 
   @DF-RHF iter   1:  -157.21409713129432    1.56186e+00   1.11559e-03 
   @DF-RHF iter   2:  -157.33196936067287   -1.17872e-01   4.30772e-04 DIIS
   @DF-RHF iter   3:  -157.35027183561192   -1.83025e-02   1.24841e-04 DIIS
   @DF-RHF iter   4:  -157.35272703953700   -2.45520e-03   2.19863e-05 DIIS
   @DF-RHF iter   5:  -157.35280802096344   -8.09814e-05   7.22189e-06 DIIS
   @DF-RHF iter   6:  -157.35281605685270   -8.03589e-06   1.39584e-06 DIIS
   @DF-RHF iter   7:  -157.35281647078702   -4.13934e-07   2.28329e-07 DIIS
   @DF-RHF iter   8:  -157.35281648333327   -1.25463e-08   3.80259e-08 DIIS
   @DF-RHF iter   9:  -157.35281648364284   -3.09569e-10   8.44367e-09 DIIS
   @DF-RHF iter  10:  -157.35281648365856   -1.57172e-11   1.60669e-09 DIIS
   @DF-RHF iter  11:  -157.35281648365932   -7.67386e-13   2.77635e-10 DIIS
   @DF-RHF iter  12:  -157.35281648366043   -1.10845e-12   9.23978e-11 DIIS

  ==> Post-Iterations <==

    Orbital Energies (a.u.)
    -----------------------

    Doubly Occupied:                                                      

       1A    -11.207096     2A    -11.206486     3A    -11.198781  
       4A    -11.198677     5A     -1.070678     6A     -0.981225  
       7A     -0.861658     8A     -0.794820     9A     -0.647647  
      10A     -0.587670    11A     -0.575077    12A     -0.570537  
      13A     -0.514792    14A     -0.503437    15A     -0.476302  
      16A     -0.468557    17A     -0.441795  

    Virtual:                                                              

      18A      0.032262    19A      0.036998    20A      0.039682  
      21A      0.040948    22A      0.056465    23A      0.058496  
      24A      0.059614    25A      0.061200    26A      0.081929  
      27A      0.085896    28A      0.095901    29A      0.112328  
      30A      0.123358    31A      0.130755    32A      0.135488  
      33A      0.142008    34A      0.143850    35A      0.147019  
      36A      0.148463    37A      0.158856    38A      0.159785  
      39A      0.168093    40A      0.170346    41A      0.202248  
      42A      0.209025    43A      0.212574    44A      0.230037  
      45A      0.249611    46A      0.251446    47A      0.251930  
      48A      0.270434    49A      0.274777    50A      0.281574  
      51A      0.282084    52A      0.315979    53A      0.319119  
      54A      0.332570    55A      0.337907    56A      0.339469  
      57A      0.347381    58A      0.357270    59A      0.358350  
      60A      0.359657    61A      0.373970    62A      0.374164  
      63A      0.384448    64A      0.390595    65A      0.391121  
      66A      0.391623    67A      0.395159    68A      0.402721  
      69A      0.409404    70A      0.414821    71A      0.424834  
      72A      0.430965    73A      0.443150    74A      0.450058  
      75A      0.459407    76A      0.462175    77A      0.463269  
      78A      0.471974    79A      0.477018    80A      0.477705  
      81A      0.480909    82A      0.491327    83A      0.498764  
      84A      0.508235    85A      0.508359    86A      0.509819  
      87A      0.522132    88A      0.523941    89A      0.526814  
      90A      0.537983    91A      0.546499    92A      0.562307  
      93A      0.564510    94A      0.578348    95A      0.585449  
      96A      0.597719    97A      0.598319    98A      0.616953  
      99A      0.623322   100A      0.640224   101A      0.642566  
     102A      0.650242   103A      0.688259   104A      0.694384  
     105A      0.703230   106A      0.703279   107A      0.764538  
     108A      0.776307   109A      0.798192   110A      0.818877  
     111A      0.823594   112A      0.824959   113A      0.840976  
     114A      0.843581   115A      0.844081   116A      0.854490  
     117A      0.861200   118A      0.865419   119A      0.888006  
     120A      0.891229   121A      0.895256   122A      0.904828  
     123A      0.916809   124A      0.918597   125A      0.922927  
     126A      0.934528   127A      0.939855   128A      0.948422  
     129A      0.956670   130A      0.958200   131A      0.964001  
     132A      0.965816   133A      0.987039   134A      0.997055  
     135A      0.998082   136A      1.003546   137A      1.009878  
     138A      1.028127   139A      1.046788   140A      1.049567  
     141A      1.073305   142A      1.081356   143A      1.098267  
     144A      1.102800   145A      1.110538   146A      1.125714  
     147A      1.133430   148A      1.134066   149A      1.135345  
     150A      1.161621   151A      1.163837   152A      1.171296  
     153A      1.180355   154A      1.196296   155A      1.207789  
     156A      1.208687   157A      1.229058   158A      1.251380  
     159A      1.253145   160A      1.260958   161A      1.264158  
     162A      1.268568   163A      1.278530   164A      1.281832  
     165A      1.284308   166A      1.297208   167A      1.316479  
     168A      1.326298   169A      1.348236   170A      1.359843  
     171A      1.361068   172A      1.367704   173A      1.385310  
     174A      1.427039   175A      1.431940   176A      1.438285  
     177A      1.466932   178A      1.483508   179A      1.497581  
     180A      1.510873   181A      1.534148   182A      1.537028  
     183A      1.546792   184A      1.554702   185A      1.579153  
     186A      1.581256   187A      1.602559   188A      1.608495  
     189A      1.618010   190A      1.647470   191A      1.648286  
     192A      1.652172   193A      1.684557   194A      1.686816  
     195A      1.701435   196A      1.703722   197A      1.705356  
     198A      1.713633   199A      1.731480   200A      1.746278  
     201A      1.755346   202A      1.756481   203A      1.758648  
     204A      1.771901   205A      1.777900   206A      1.787054  
     207A      1.794431   208A      1.795120   209A      1.832248  
     210A      1.856665   211A      1.864022   212A      1.880829  
     213A      1.881242   214A      1.897196   215A      1.917861  
     216A      1.920731   217A      1.971453   218A      1.976409  
     219A      1.983699   220A      1.986506   221A      1.990679  
     222A      1.991853   223A      2.029809   224A      2.055540  
     225A      2.063338   226A      2.077228   227A      2.100580  
     228A      2.105681   229A      2.155250   230A      2.157463  
     231A      2.173805   232A      2.178808   233A      2.191138  
     234A      2.206117   235A      2.243768   236A      2.254866  
     237A      2.265302   238A      2.296448   239A      2.310733  
     240A      2.327260   241A      2.330577   242A      2.338952  
     243A      2.340165   244A      2.349730   245A      2.381627  
     246A      2.404220   247A      2.433840   248A      2.461008  
     249A      2.469758   250A      2.478379   251A      2.498447  
     252A      2.544431   253A      2.611245   254A      2.611552  
     255A      2.657694   256A      2.683588   257A      2.684975  
     258A      2.883231   259A      2.892147   260A      3.005170  
     261A      3.232477   262A      3.255082   263A      3.264466  
     264A      3.380327   265A      3.417145   266A      3.419279  
     267A      3.455301   268A      3.465665   269A      3.478440  
     270A      3.486182   271A      3.518493   272A      3.534726  
     273A      3.557100   274A      3.570971   275A      3.595972  
     276A      3.597313   277A      3.621074   278A      3.675143  
     279A      3.690917   280A      3.694760   281A      3.722205  
     282A      3.723435   283A      3.727294   284A      3.737126  
     285A      3.754897   286A      3.757009   287A      3.793714  
     288A      3.798331   289A      3.809342   290A      3.813282  
     291A      3.839520   292A      3.871892   293A      3.877086  
     294A      3.885655   295A      3.903954   296A      3.911849  
     297A      3.931181   298A      3.949929   299A      3.951956  
     300A      4.000859   301A      4.013414   302A      4.014117  
     303A      4.020972   304A      4.026104   305A      4.043638  
     306A      4.055171   307A      4.058100   308A      4.076339  
     309A      4.150615   310A      4.167929   311A      4.211195  
     312A      4.218472   313A      4.231289   314A      4.253660  
     315A      4.254433   316A      4.273731   317A      4.278050  
     318A      4.288930   319A      4.309720   320A      4.316226  
     321A      4.357016   322A      4.360934   323A      4.371864  
     324A      4.403932   325A      4.428755   326A      4.433790  
     327A      4.546557   328A      4.557924   329A      4.581454  
     330A      4.586020   331A      4.639045   332A      4.664268  
     333A      4.693484   334A      4.704232   335A      4.743702  
     336A      4.743988   337A      4.749603   338A      4.751289  
     339A      4.760639   340A      4.803914   341A      4.820718  
     342A      4.862893   343A      4.870474   344A      4.882573  
     345A      4.884249   346A      4.901133   347A      4.918224  
     348A      4.954278   349A      4.975051   350A      4.992733  
     351A      5.051452   352A      5.051781   353A      5.080820  
     354A      5.102165   355A      5.126958   356A      5.185886  
     357A      5.194512   358A      5.218522   359A      5.243586  
     360A      5.244096   361A      5.249425   362A      5.268098  
     363A      5.277412   364A      5.282582   365A      5.288995  
     366A      5.402367   367A      5.407479   368A      5.412924  
     369A      5.428448   370A      5.439155   371A      5.450164  
     372A      5.459528   373A      5.465547   374A      5.508247  
     375A      5.565095   376A      5.599971   377A      5.624208  
     378A      5.634759   379A      5.688222   380A      5.689933  
     381A      5.697453   382A      5.743878   383A      5.771982  
     384A      5.804576   385A      5.828627   386A      5.891557  
     387A      5.902875   388A      5.924953   389A      5.949021  
     390A      6.035237   391A      6.092375   392A      6.150573  
     393A      6.163633   394A      6.171190   395A      6.255723  
     396A      6.264545   397A      6.283584   398A      6.302649  
     399A      6.310046   400A      6.364318   401A      6.393653  
     402A      6.447065   403A      6.547367   404A      6.556711  
     405A      6.754387   406A      6.782999   407A      6.822013  
     408A      6.839128   409A      6.865335   410A      6.984115  
     411A     17.988374   412A     18.319679   413A     18.438350  
     414A     18.887577  

    Final Occupation by Irrep:
              A 
    DOCC [    17 ]

  Energy converged.

  @DF-RHF Final Energy:  -157.35281648366043

   => Energetics <=

    Nuclear Repulsion Energy =            131.8199656753190823
    One-Electron Energy =                -471.7350949662942412
    Two-Electron Energy =                 182.5623128073147541
    DFT Exchange-Correlation Energy =       0.0000000000000000
    Empirical Dispersion Energy =           0.0000000000000000
    PCM Polarization Energy =               0.0000000000000000
    EFP Energy =                            0.0000000000000000
    Total Energy =                       -157.3528164836604333



Properties will be evaluated at   0.000000,   0.000000,   0.000000 Bohr

Properties computed using the SCF density matrix

  Nuclear Dipole Moment: (a.u.)
     X:     0.0019      Y:     0.0015      Z:    -0.0012

  Electronic Dipole Moment: (a.u.)
     X:    -0.0018      Y:    -0.0022      Z:     0.0011

  Dipole Moment: (a.u.)
     X:     0.0001      Y:    -0.0006      Z:    -0.0001     Total:     0.0007

  Dipole Moment: (Debye)
     X:     0.0004      Y:    -0.0016      Z:    -0.0002     Total:     0.0017


*** tstop() called on cpu-6-2.local at Wed Jun 14 14:21:23 2017
Module time:
	user time   =      60.61 seconds =       1.01 minutes
	system time =       0.54 seconds =       0.01 minutes
	total time  =         61 seconds =       1.02 minutes
Total time:
	user time   =      60.62 seconds =       1.01 minutes
	system time =       0.54 seconds =       0.01 minutes
	total time  =         61 seconds =       1.02 minutes

  //>>>>>>>>>>>>>>>>>>>>>>>>>>>>>>>>>>>//
  //               DFMP2               //
  //<<<<<<<<<<<<<<<<<<<<<<<<<<<<<<<<<<<//

   => Loading Basis Set <=

    Name: (AUG-CC-PVTZ AUX)
    Role: RIFIT
    Keyword: DF_BASIS_MP2
    atoms 1-3, 5-6, 8-9, 11-13 entry H          line    29 file /cbio/jclab/home/chayas/anaconda/envs/py35/share/psi4/basis/aug-cc-pvtz-ri.gbs 
    atoms 4, 7, 10, 14         entry C          line   147 file /cbio/jclab/home/chayas/anaconda/envs/py35/share/psi4/basis/aug-cc-pvtz-ri.gbs 

	 --------------------------------------------------------
	                          DF-MP2                         
	      2nd-Order Density-Fitted Moller-Plesset Theory     
	              RMP2 Wavefunction,   1 Threads             
	                                                         
	        Rob Parrish, Justin Turney, Andy Simmonett,      
	           Ed Hohenstein, and C. David Sherrill          
	 --------------------------------------------------------

   => Auxiliary Basis Set <=

  Basis Set: (AUG-CC-PVTZ AUX)
    Blend: AUG-CC-PVTZ-RI
    Number of shells: 252
    Number of basis function: 884
    Number of Cartesian functions: 1094
    Spherical Harmonics?: true
    Max angular momentum: 4

	 --------------------------------------------------------
	                 NBF =   414, NAUX =   884
	 --------------------------------------------------------
	   CLASS    FOCC     OCC    AOCC    AVIR     VIR    FVIR
	   PAIRS       0      17      17     397     397       0
	 --------------------------------------------------------


         ------------------------------------------------------------
                                     CPHF                           
                                  Rob Parrish                       
         ------------------------------------------------------------

  ==> Geometry <==

    Molecular point group: c1
    Full point group: C1

    Geometry (in Angstrom), charge = 0, multiplicity = 1:

       Center              X                  Y                   Z               Mass       
    ------------   -----------------  -----------------  -----------------  -----------------
           H         -2.312793382205     0.057965294236     0.314776029323     1.007825032070
           H         -2.171793382205     1.685965294236    -0.305223970677     1.007825032070
           H         -1.873793382205     0.321965294236    -1.355223970677     1.007825032070
           C         -1.774793382205     0.692965294236    -0.357223970677    12.000000000000
           H          0.252206617795     1.348965294236    -0.635223970677     1.007825032070
           H         -0.185793382205     1.085965294236     1.035776029323     1.007825032070
           C         -0.285793382205     0.713965294236     0.037776029323    12.000000000000
           H         -0.251793382205    -1.349034705764     0.634776029323     1.007825032070
           H          0.187206617795    -1.086034705764    -1.035223970677     1.007825032070
           C          0.286206617795    -0.714034705764    -0.037223970677    12.000000000000
           H          2.171206617795    -1.685034705764     0.304776029323     1.007825032070
           H          1.874206617795    -0.321034705764     1.354776029323     1.007825032070
           H          2.313206617795    -0.058034705764    -0.315223970677     1.007825032070
           C          1.774206617795    -0.693034705764     0.356776029323    12.000000000000

  Nuclear repulsion =  131.819965675319082
  Reference energy  = -157.352816483660433

  ==> Basis Set <==

  Basis Set: AUG-CC-PVTZ
    Blend: AUG-CC-PVTZ
    Number of shells: 146
    Number of basis function: 414
    Number of Cartesian functions: 470
    Spherical Harmonics?: true
    Max angular momentum: 3

  ==> CGRSolver (by Rob Parrish) <==

   Number of roots    =         1
   Preconditioning    =    JACOBI
   Convergence cutoff =     1E-06
   Maximum iterations =       100

  ==> CPHFRHamiltonian (by Rob Parrish) <== 

  ==> DFJK: Density-Fitted J/K Matrices <==

    J tasked:                  Yes
    K tasked:                  Yes
    wK tasked:                  No
    OpenMP threads:              1
    Integrals threads:           1
    Memory (MB):              3576
    Algorithm:                Core
    Integral Cache:           NONE
    Schwarz Cutoff:          1E-12
    Fitting Condition:       1E-12

   => Auxiliary Basis Set <=

  Basis Set: (AUG-CC-PVTZ AUX)
    Blend: AUG-CC-PVTZ-JKFIT
    Number of shells: 260
    Number of basis function: 876
    Number of Cartesian functions: 1074
    Spherical Harmonics?: true
    Max angular momentum: 4

  ==> CPHF Iterations <==

  => Iterations <=

             Iter  Converged  Remaining    Residual
  CGR           1          0          1   8.153E-02
  CGR           2          0          1   1.302E-02
  CGR           3          0          1   3.409E-03
  CGR           4          0          1   8.036E-04
  CGR           5          0          1   1.177E-04
  CGR           6          0          1   2.092E-05
  CGR           7          0          1   3.604E-06
  CGR           8          1          0   7.894E-07

    CGRSolver converged.

  ==> DFCorrGrad: Density-Fitted Correlated Gradients <==

    OpenMP threads:              1
    Integrals threads:           1
    Memory (MB):              3576
    Schwarz Cutoff:          0E+00
    Fitting Condition:       1E-12

   => Auxiliary Basis Set <=

  Basis Set: (AUG-CC-PVTZ AUX)
    Blend: AUG-CC-PVTZ-JKFIT
    Number of shells: 260
    Number of basis function: 876
    Number of Cartesian functions: 1074
    Spherical Harmonics?: true
    Max angular momentum: 4

	-----------------------------------------------------------
	 ==================> DF-MP2 Energies <==================== 
	-----------------------------------------------------------
	 Reference Energy          =    -157.3528164836604333 [Eh]
	 Singles Energy            =      -0.0000000000000000 [Eh]
	 Same-Spin Energy          =      -0.1653647387125528 [Eh]
	 Opposite-Spin Energy      =      -0.6386381326755435 [Eh]
	 Correlation Energy        =      -0.8040028713880962 [Eh]
	 Total Energy              =    -158.1568193550485262 [Eh]
	-----------------------------------------------------------
	 ================> DF-SCS-MP2 Energies <================== 
	-----------------------------------------------------------
	 SCS Same-Spin Scale       =       0.3333333333333333 [-]
	 SCS Opposite-Spin Scale   =       1.2000000000000000 [-]
	 SCS Same-Spin Energy      =      -0.0551215795708509 [Eh]
	 SCS Opposite-Spin Energy  =      -0.7663657592106522 [Eh]
	 SCS Correlation Energy    =      -0.8214873387815032 [Eh]
	 SCS Total Energy          =    -158.1743038224419422 [Eh]
	-----------------------------------------------------------


  -Total Gradient:
     Atom            X                  Y                   Z
    ------   -----------------  -----------------  -----------------
       1        0.007897152979     0.006758709698    -0.006346605423
       2        0.008159262425    -0.009350903168     0.000617142848
       3        0.003283036645     0.004171297018     0.011237345481
       4       -0.025192884481    -0.007041569332    -0.008027737210
       5       -0.007767166504    -0.008222505059     0.006061213435
       6       -0.003184658015    -0.005634485431    -0.011477711111
       7        0.021850690510     0.031061451058     0.011163390294
       8        0.007964289569     0.008479172667    -0.006378041833
       9        0.003318526684     0.005621125166     0.011574241329
      10       -0.021659566699    -0.031341873500    -0.010633337869
      11       -0.008400349436     0.009988632105    -0.000647632930
      12       -0.003259258779    -0.004001903423    -0.010999600974
      13       -0.007622931904    -0.006572878098     0.006211798255
      14        0.024613857006     0.006085730295     0.007645535706


*** tstop() called on cpu-6-2.local at Wed Jun 14 14:25:24 2017
Module time:
	user time   =     298.36 seconds =       4.97 minutes
	system time =       4.00 seconds =       0.07 minutes
	total time  =        302 seconds =       5.03 minutes
Total time:
	user time   =     298.37 seconds =       4.97 minutes
	system time =       4.00 seconds =       0.07 minutes
	total time  =        302 seconds =       5.03 minutes

			-----------------------------------------
			 OPTKING 2.0: for geometry optimizations 
			  - R.A. King,  Bethel University        
			-----------------------------------------

	Internal coordinates to be generated automatically.
	Detected frag 1 with atoms:  1 2 3 4 5 6 7 8 9 10 11 12 13 14
	---Fragment 1 Bond Connectivity---
	 1 : 4
	 2 : 4
	 3 : 4
	 4 : 1 2 3 7
	 5 : 7
	 6 : 7
	 7 : 4 5 6 10
	 8 : 10
	 9 : 10
	 10 : 7 8 9 14
	 11 : 14
	 12 : 14
	 13 : 14
	 14 : 10 11 12 13

	Assuming in current code that numbering for constraints corresponds to unified fragment.
	Fixed dihedral atom list: 
	    10     7     4     3
	---Fragment 1 Geometry and Gradient---
	 H          -4.3705460943        0.1095385313        0.5948404886
	 H          -4.1040947096        3.1860126757       -0.5767897138
	 H          -3.5409563220        0.6084262304       -2.5610021533
	 C          -3.3538734348        1.3095146257       -0.6750554727
	 H           0.4766014365        2.5491749689       -1.2003993376
	 H          -0.3510986097        2.0521769959        1.9573330304
	 C          -0.5400712230        1.3491988745        0.0713863498
	 H          -0.4758205344       -2.5493061377        1.1995528511
	 H           0.3537692379       -2.0523081647       -1.9562897908
	 C           0.5408521251       -1.3493300433       -0.0703431102
	 H           4.1029858855       -3.1842541183        0.5759432273
	 H           3.5417372241       -0.6066676730        2.5601556668
	 H           4.3713269964       -0.1096697001       -0.5956869751
	 C           3.3527646108       -1.3096457945        0.6742089862
	             0.0078971530        0.0067587097       -0.0063466054
	             0.0081592624       -0.0093509032        0.0006171428
	             0.0032830366        0.0041712970        0.0112373455
	            -0.0251928845       -0.0070415693       -0.0080277372
	            -0.0077671665       -0.0082225051        0.0060612134
	            -0.0031846580       -0.0056344854       -0.0114777111
	             0.0218506905        0.0310614511        0.0111633903
	             0.0079642896        0.0084791727       -0.0063780418
	             0.0033185267        0.0056211252        0.0115742413
	            -0.0216595667       -0.0313418735       -0.0106333379
	            -0.0084003494        0.0099886321       -0.0006476329
	            -0.0032592588       -0.0040019034       -0.0109996010
	            -0.0076229319       -0.0065728781        0.0062117983
	             0.0246138570        0.0060857303        0.0076455357

	Previous optimization step data not found.  Starting new optimization.

	---Fragment 1 Intrafragment Coordinates---
	 - Coordinate -           - BOHR/RAD -       - ANG/DEG -
	 R(1,4)           =         2.021436	       1.069698
	 R(2,4)           =         2.023298	       1.070683
	 R(3,4)           =         2.020723	       1.069320
	 R(4,7)           =         2.911397	       1.540645
	 R(5,7)           =         2.022623	       1.070326
	 R(6,7)           =         2.021555	       1.069761
	 R(7,10)          =         2.910419	       1.540128
	 R(8,10)          =         2.021436	       1.069698
	 R(9,10)          =         2.021379	       1.069668
	 R(10,14)         =         2.909087	       1.539422
	 R(11,14)         =         2.021545	       1.069756
	 R(12,14)         =         2.021555	       1.069761
	 R(13,14)         =         2.022387	       1.070201
	 B(1,4,2)         =         1.910870	     109.484805
	 B(1,4,3)         =         1.911121	     109.499161
	 B(1,4,7)         =         1.910399	     109.457783
	 B(2,4,3)         =         1.910042	     109.437340
	 B(2,4,7)         =         1.910564	     109.467262
	 B(3,4,7)         =         1.910803	     109.480971
	 B(4,7,5)         =         1.909937	     109.431343
	 B(4,7,6)         =         1.911630	     109.528316
	 B(4,7,10)        =         1.911154	     109.501062
	 B(5,7,6)         =         1.910605	     109.469614
	 B(5,7,10)        =         1.910047	     109.437654
	 B(6,7,10)        =         1.910425	     109.459295
	 B(7,10,8)        =         1.910303	     109.452301
	 B(7,10,9)        =         1.910824	     109.482155
	 B(7,10,14)       =         1.911213	     109.504437
	 B(8,10,9)        =         1.910417	     109.458846
	 B(8,10,14)       =         1.910766	     109.478806
	 B(9,10,14)       =         1.910276	     109.450772
	 B(10,14,11)      =         1.910943	     109.488965
	 B(10,14,12)      =         1.911204	     109.503926
	 B(10,14,13)      =         1.911557	     109.524173
	 B(11,14,12)      =         1.910410	     109.458432
	 B(11,14,13)      =         1.910054	     109.438058
	 B(12,14,13)      =         1.909629	     109.413709
	 D(1,4,7,5)       =         3.140997	     179.965873
	 D(1,4,7,6)       =        -1.047644	     -60.025575
	 D(1,4,7,10)      =         1.047427	      60.013132
	 D(2,4,7,5)       =        -1.047689	     -60.028143
	 D(2,4,7,6)       =         1.046856	      59.980409
	 D(2,4,7,10)      =        -3.141259	    -179.980883
	 D(3,4,7,5)       =         1.046044	      59.933911
	 D(3,4,7,6)       =         3.140588	     179.942463
	 D(3,4,7,10)      =        -1.047526	     -60.018830
	 D(4,7,10,8)      =        -1.047368	     -60.009777
	 D(4,7,10,9)      =         1.046677	      59.970178
	 D(4,7,10,14)     =         3.141107	     179.972182
	 D(5,7,10,8)      =        -3.140871	    -179.958653
	 D(5,7,10,9)      =        -1.046826	     -59.978698
	 D(5,7,10,14)     =         1.047604	      60.023306
	 D(6,7,10,8)      =         1.048439	      60.071149
	 D(6,7,10,9)      =        -3.140701	    -179.948896
	 D(6,7,10,14)     =        -1.046271	     -59.946893
	 D(7,10,14,11)    =         3.141408	     179.989448
	 D(7,10,14,12)    =         1.046747	      59.974196
	 D(7,10,14,13)    =        -1.047335	     -60.007849
	 D(8,10,14,11)    =         1.046982	      59.987626
	 D(8,10,14,12)    =        -1.047680	     -60.027626
	 D(8,10,14,13)    =         3.141424	     179.990329
	 D(9,10,14,11)    =        -1.047012	     -59.989345
	 D(9,10,14,12)    =         3.141512	     179.995403
	 D(9,10,14,13)    =         1.047431	      60.013359

	Current energy   :      -158.1568193550

	Generating empirical Hessian (Schlegel '84) for each fragment.
	Adding user-defined constraint: Fragment 1; Coordinate 46:
		Value =    -1.047526; Fixed value    =    -1.047198
		Force =     0.000164; Force constant =     0.500000
	Removing off-diagonal coupling between coordinate 46 and others.
	Taking RFO optimization step.
	Going to follow RFO solution 1.
	Using RFO vector 1.

	Determining step-restricting scale parameter for RS-RFO.
	Maximum step size allowed    0.10000

	 Iter      |step|        alpha        rfo_root  
	------------------------------------------------
	    0     0.17941       1.00000           1
	    1     0.13846       8.52203           1
	    2     0.11368      21.01031           1
	    3     0.10253      31.21355           1
	    4     0.10011      34.02217           1
	    5     0.10000      34.15701           1
	------------------------------------------------
	Norm of target step-size    0.10000
	Projected energy change by RFO approximation:        -0.0039868147

	Back-transformation to cartesian coordinates...
	Could not converge backtransformation.
	Using first guess instead.

	--- Internal Coordinate Step in ANG or DEG, aJ/ANG or AJ/DEG ---
	 ---------------------------------------------------------------------------
	   Coordinate                Previous        Force       Change         New 
	   ----------                --------       ------       ------       ------
	    1 R(1,4)          =      1.069698     0.098626     0.012198     1.081895
	    2 R(2,4)          =      1.070683     0.096128     0.011905     1.082588
	    3 R(3,4)          =      1.069320     0.100834     0.012459     1.081779
	    4 R(4,7)          =      1.540645    -0.052544    -0.007721     1.532924
	    5 R(5,7)          =      1.070326     0.103755     0.012800     1.083126
	    6 R(6,7)          =      1.069761     0.106813     0.013158     1.082919
	    7 R(7,10)         =      1.540128    -0.075553    -0.011012     1.529115
	    8 R(8,10)         =      1.069698     0.107481     0.013239     1.082936
	    9 R(9,10)         =      1.069668     0.107604     0.013254     1.082921
	   10 R(10,14)        =      1.539422    -0.047734    -0.006990     1.532433
	   11 R(11,14)        =      1.069756     0.101737     0.012570     1.082326
	   12 R(12,14)        =      1.069761     0.098519     0.012184     1.081945
	   13 R(13,14)        =      1.070201     0.095897     0.011872     1.082073
	   14 B(1,4,2)        =    109.484805    -0.000250    -0.587811   108.896994
	   15 B(1,4,3)        =    109.499161    -0.000170    -0.444571   109.054590
	   16 B(1,4,7)        =    109.457783     0.000134     0.314599   109.772382
	   17 B(2,4,3)        =    109.437340    -0.000246    -0.589722   108.847619
	   18 B(2,4,7)        =    109.467262     0.000410     1.010022   110.477284
	   19 B(3,4,7)        =    109.480971     0.000123     0.281767   109.762738
	   20 B(4,7,5)        =    109.431343    -0.000116    -0.135523   109.295820
	   21 B(4,7,6)        =    109.528316    -0.000124    -0.169786   109.358530
	   22 B(4,7,10)       =    109.501062     0.000630     1.378860   110.879923
	   23 B(5,7,6)        =    109.469614     0.000009    -0.241264   109.228350
	   24 B(5,7,10)       =    109.437654    -0.000199    -0.403139   109.034515
	   25 B(6,7,10)       =    109.459295    -0.000201    -0.439353   109.019942
	   26 B(7,10,8)       =    109.452301    -0.000200    -0.423449   109.028852
	   27 B(7,10,9)       =    109.482155    -0.000205    -0.437531   109.044624
	   28 B(7,10,14)      =    109.504437     0.000633     1.383012   110.887448
	   29 B(8,10,9)       =    109.458846     0.000009    -0.240025   109.218821
	   30 B(8,10,14)      =    109.478806    -0.000121    -0.153376   109.325430
	   31 B(9,10,14)      =    109.450772    -0.000116    -0.139047   109.311725
	   32 B(10,14,11)     =    109.488965     0.000412     1.021088   110.510053
	   33 B(10,14,12)     =    109.503926     0.000125     0.286135   109.790060
	   34 B(10,14,13)     =    109.524173     0.000118     0.270715   109.794887
	   35 B(11,14,12)     =    109.458432    -0.000247    -0.578916   108.879516
	   36 B(11,14,13)     =    109.438058    -0.000244    -0.572037   108.866022
	   37 B(12,14,13)     =    109.413709    -0.000165    -0.444770   108.968939
	   38 D(1,4,7,5)      =    179.965873     0.000010     0.136046   180.101919
	   39 D(1,4,7,6)      =    -60.025575    -0.000022    -0.344111   -60.369687
	   40 D(1,4,7,10)     =     60.013132    -0.000007    -0.135806    59.877327
	   41 D(2,4,7,5)      =    -60.028143     0.000016     0.236811   -59.791332
	   42 D(2,4,7,6)      =     59.980409    -0.000016    -0.243346    59.737063
	   43 D(2,4,7,10)     =   -179.980883    -0.000001    -0.035041  -180.015924
	   44 D(3,4,7,5)      =     59.933911     0.000021     0.314100    60.248011
	   45 D(3,4,7,6)      =    179.942463    -0.000010    -0.166057   179.776405
	   46 D(3,4,7,10)     =    -60.018830     0.000005     0.042249   -59.976581
	   47 D(4,7,10,8)     =    -60.009777     0.000028     0.424047   -59.585730
	   48 D(4,7,10,9)     =     59.970178    -0.000026    -0.384540    59.585638
	   49 D(4,7,10,14)    =    179.972182     0.000001     0.024370   179.996551
	   50 D(5,7,10,8)     =   -179.958653    -0.000000    -0.007072  -179.965724
	   51 D(5,7,10,9)     =    -59.978698    -0.000054    -0.815658   -60.794356
	   52 D(5,7,10,14)    =     60.023306    -0.000027    -0.406749    59.616557
	   53 D(6,7,10,8)     =     60.071149     0.000053     0.791405    60.862554
	   54 D(6,7,10,9)     =   -179.948896    -0.000001    -0.017181  -179.966078
	   55 D(6,7,10,14)    =    -59.946893     0.000027     0.391728   -59.555165
	   56 D(7,10,14,11)   =    179.989448     0.000000     0.003453   179.992900
	   57 D(7,10,14,12)   =     59.974196    -0.000006    -0.098409    59.875787
	   58 D(7,10,14,13)   =    -60.007849     0.000006     0.104209   -59.903640
	   59 D(8,10,14,11)   =     59.987626    -0.000015    -0.236138    59.751488
	   60 D(8,10,14,12)   =    -60.027626    -0.000021    -0.338000   -60.365626
	   61 D(8,10,14,13)   =    179.990329    -0.000009    -0.135382   179.854948
	   62 D(9,10,14,11)   =    -59.989345     0.000015     0.234378   -59.754966
	   63 D(9,10,14,12)   =    179.995403     0.000009     0.132517   180.127920
	   64 D(9,10,14,13)   =     60.013359     0.000021     0.335135    60.348494
	 ---------------------------------------------------------------------------
	Successfully symmetrized geometry.
	 Forces used to impose fixed constraints are not included.
	  Forces zeroed: 46 

  ==> Convergence Check <==

  Measures of convergence in internal coordinates in au.
  Criteria marked as inactive (o), active & met (*), and active & unmet ( ).
  --------------------------------------------------------------------------------------------- ~
   Step     Total Energy     Delta E     MAX Force     RMS Force      MAX Disp      RMS Disp    ~
  --------------------------------------------------------------------------------------------- ~
    Convergence Criteria    1.00e-06 *    3.00e-04 *             o    1.20e-03 *             o  ~
  --------------------------------------------------------------------------------------------- ~
      1    -158.15681936   -1.58e+02      1.31e-02      5.62e-03 o    2.50e-02      1.25e-02 o  ~
  ---------------------------------------------------------------------------------------------

	Writing optimization data to binary file.
	Structure for next step:
	Cartesian Geometry (in Angstrom)
	    H    -2.3295170834   0.0584553734   0.3182437289
	    H    -2.1859844665   1.6986908790  -0.3063988991
	    H    -1.8867779106   0.3253695998  -1.3662926816
	    C    -1.7762810766   0.6978864902  -0.3567044926
	    H     0.2519943863   1.3484103773  -0.6452281459
	    H    -0.1905574027   1.0825059429   1.0435271904
	    C    -0.2939536210   0.7049879251   0.0338226373
	    H    -0.2521097478  -1.3482424375   0.6447688253
	    H     0.1915463207  -1.0825582556  -1.0434625604
	    C     0.2941963030  -0.7048732545  -0.0337420897
	    H     2.1860052290  -1.6984164537   0.3067827857
	    H     1.8873846890  -0.3238039373   1.3656183846
	    H     2.3298683028  -0.0589380227  -0.3186186088
	    C     1.7760787269  -0.6979601071   0.3565483365
			--------------------------
			 OPTKING Finished Execution 
			--------------------------

    Structure for next step:
    Molecular point group: c1
    Full point group: C1

    Geometry (in Angstrom), charge = 0, multiplicity = 1:

    H           -2.329557559787     0.058421329080     0.318277744662
    H           -2.186024942932     1.698656834667    -0.306364883353
    H           -1.886818386975     0.325335555426    -1.366258665832
    C           -1.776321553020     0.697852445844    -0.356670476838
    H            0.251953909883     1.348376332925    -0.645194130136
    H           -0.190597879141     1.082471898528     1.043561206201
    C           -0.293994097398     0.704953880724     0.033856653084
    H           -0.252150224189    -1.348276481887     0.644802841106
    H            0.191505844331    -1.082592299971    -1.043428544599
    C            0.294155826580    -0.704907298866    -0.033708073875
    H            2.185964752553    -1.698450498011     0.306816801515
    H            1.887344212591    -0.323837981638     1.365652400427
    H            2.329827826347    -0.058972067023    -0.318584592999
    C            1.776038250518    -0.697994151444     0.356582352266

gradient() will perform analytic gradient computation.

*** tstart() called on cpu-6-2.local
*** at Wed Jun 14 14:25:24 2017

    SCF Algorithm Type (re)set to DF.

*** tstart() called on cpu-6-2.local
*** at Wed Jun 14 14:25:24 2017

   => Loading Basis Set <=

    Name: AUG-CC-PVTZ
    Role: ORBITAL
    Keyword: BASIS
    atoms 1-3, 5-6, 8-9, 11-13 entry H          line    34 file /cbio/jclab/home/chayas/anaconda/envs/py35/share/psi4/basis/aug-cc-pvtz.gbs 
    atoms 4, 7, 10, 14         entry C          line   221 file /cbio/jclab/home/chayas/anaconda/envs/py35/share/psi4/basis/aug-cc-pvtz.gbs 


         ---------------------------------------------------------
                                   SCF
            by Justin Turney, Rob Parrish, and Andy Simmonett
                              RHF Reference
                        1 Threads,   4768 MiB Core
         ---------------------------------------------------------

  ==> Geometry <==

    Molecular point group: c1
    Full point group: C1

    Geometry (in Angstrom), charge = 0, multiplicity = 1:

       Center              X                  Y                   Z               Mass       
    ------------   -----------------  -----------------  -----------------  -----------------
           H         -2.329557559787     0.058421329080     0.318277744662     1.007825032070
           H         -2.186024942932     1.698656834667    -0.306364883353     1.007825032070
           H         -1.886818386975     0.325335555426    -1.366258665832     1.007825032070
           C         -1.776321553020     0.697852445844    -0.356670476838    12.000000000000
           H          0.251953909883     1.348376332925    -0.645194130136     1.007825032070
           H         -0.190597879141     1.082471898528     1.043561206201     1.007825032070
           C         -0.293994097398     0.704953880724     0.033856653084    12.000000000000
           H         -0.252150224189    -1.348276481887     0.644802841106     1.007825032070
           H          0.191505844331    -1.082592299971    -1.043428544599     1.007825032070
           C          0.294155826580    -0.704907298866    -0.033708073875    12.000000000000
           H          2.185964752553    -1.698450498011     0.306816801515     1.007825032070
           H          1.887344212591    -0.323837981638     1.365652400427     1.007825032070
           H          2.329827826347    -0.058972067023    -0.318584592999     1.007825032070
           C          1.776038250518    -0.697994151444     0.356582352266    12.000000000000

  Running in c1 symmetry.

  Rotational constants: A =      0.77650  B =      0.12373  C =      0.11593 [cm^-1]
  Rotational constants: A =  23278.75003  B =   3709.24377  C =   3475.36518 [MHz]
  Nuclear repulsion =  131.477498967151348

  Charge       = 0
  Multiplicity = 1
  Electrons    = 34
  Nalpha       = 17
  Nbeta        = 17

  ==> Algorithm <==

  SCF Algorithm Type is DF.
  DIIS enabled.
  MOM disabled.
  Fractional occupation disabled.
  Guess Type is READ.
  Energy threshold   = 1.00e-10
  Density threshold  = 1.00e-10
  Integral threshold = 0.00e+00

  ==> Primary Basis <==

  Basis Set: AUG-CC-PVTZ
    Blend: AUG-CC-PVTZ
    Number of shells: 146
    Number of basis function: 414
    Number of Cartesian functions: 470
    Spherical Harmonics?: true
    Max angular momentum: 3

   => Loading Basis Set <=

    Name: (AUG-CC-PVTZ AUX)
    Role: JKFIT
    Keyword: DF_BASIS_SCF
    atoms 1-3, 5-6, 8-9, 11-13 entry H          line    69 file /cbio/jclab/home/chayas/anaconda/envs/py35/share/psi4/basis/aug-cc-pvtz-jkfit.gbs 
    atoms 4, 7, 10, 14         entry C          line   161 file /cbio/jclab/home/chayas/anaconda/envs/py35/share/psi4/basis/aug-cc-pvtz-jkfit.gbs 

  Reading orbitals from file 180, no projection.

  ==> Pre-Iterations <==

   -------------------------------------------------------
    Irrep   Nso     Nmo     Nalpha   Nbeta   Ndocc  Nsocc
   -------------------------------------------------------
     A        414     414       0       0       0       0
   -------------------------------------------------------
    Total     414     414      17      17      17       0
   -------------------------------------------------------

  ==> Integral Setup <==

  ==> DFJK: Density-Fitted J/K Matrices <==

    J tasked:                  Yes
    K tasked:                  Yes
    wK tasked:                  No
    OpenMP threads:              1
    Integrals threads:           1
    Memory (MB):              3576
    Algorithm:                Core
    Integral Cache:           NONE
    Schwarz Cutoff:          1E-12
    Fitting Condition:       1E-12

   => Auxiliary Basis Set <=

  Basis Set: (AUG-CC-PVTZ AUX)
    Blend: AUG-CC-PVTZ-JKFIT
    Number of shells: 260
    Number of basis function: 876
    Number of Cartesian functions: 1074
    Spherical Harmonics?: true
    Max angular momentum: 4

  Minimum eigenvalue in the overlap matrix is 8.0015301994E-06.
  Using Symmetric Orthogonalization.

  SCF Guess: Orbitals guess was supplied from a previous computation.

  ==> Iterations <==

                           Total Energy        Delta E     RMS |[F,P]|

   @DF-RHF iter   0:  -157.27817968262022   -1.57278e+02   1.26925e-04 
   @DF-RHF iter   1:  -157.35510371997918   -7.69240e-02   5.22040e-05 
   @DF-RHF iter   2:  -157.35538237728315   -2.78657e-04   2.70145e-05 DIIS
   @DF-RHF iter   3:  -157.35544143884687   -5.90616e-05   2.89356e-06 DIIS
   @DF-RHF iter   4:  -157.35544290615860   -1.46731e-06   7.73557e-07 DIIS
   @DF-RHF iter   5:  -157.35544299439800   -8.82394e-08   2.56755e-07 DIIS
   @DF-RHF iter   6:  -157.35544300431559   -9.91758e-09   4.15757e-08 DIIS
   @DF-RHF iter   7:  -157.35544300470139   -3.85796e-10   5.93215e-09 DIIS
   @DF-RHF iter   8:  -157.35544300471057   -9.18021e-12   9.99509e-10 DIIS
   @DF-RHF iter   9:  -157.35544300471233   -1.76215e-12   2.20983e-10 DIIS
   @DF-RHF iter  10:  -157.35544300471130    1.02318e-12   4.49090e-11 DIIS

  ==> Post-Iterations <==

    Orbital Energies (a.u.)
    -----------------------

    Doubly Occupied:                                                      

       1A    -11.210300     2A    -11.209685     3A    -11.203848  
       4A    -11.203808     5A     -1.071503     6A     -0.980122  
       7A     -0.859889     8A     -0.789049     9A     -0.645578  
      10A     -0.585077    11A     -0.572093    12A     -0.571812  
      13A     -0.513045    14A     -0.499625    15A     -0.470417  
      16A     -0.465510    17A     -0.449416  

    Virtual:                                                              

      18A      0.032272    19A      0.036863    20A      0.039719  
      21A      0.040944    22A      0.056425    23A      0.058480  
      24A      0.059550    25A      0.061386    26A      0.081827  
      27A      0.085842    28A      0.095895    29A      0.112254  
      30A      0.123191    31A      0.130763    32A      0.135346  
      33A      0.141675    34A      0.143917    35A      0.147026  
      36A      0.148136    37A      0.158882    38A      0.159732  
      39A      0.168431    40A      0.170406    41A      0.202368  
      42A      0.209859    43A      0.212443    44A      0.229226  
      45A      0.248823    46A      0.249805    47A      0.250942  
      48A      0.269371    49A      0.272332    50A      0.280562  
      51A      0.281457    52A      0.316248    53A      0.318969  
      54A      0.331381    55A      0.337956    56A      0.338819  
      57A      0.346239    58A      0.356828    59A      0.357266  
      60A      0.358340    61A      0.373314    62A      0.374076  
      63A      0.384167    64A      0.389166    65A      0.391066  
      66A      0.391437    67A      0.395186    68A      0.402157  
      69A      0.407263    70A      0.413817    71A      0.424511  
      72A      0.429916    73A      0.442684    74A      0.446494  
      75A      0.454377    76A      0.461056    77A      0.461830  
      78A      0.470158    79A      0.474695    80A      0.477318  
      81A      0.477999    82A      0.489638    83A      0.497696  
      84A      0.506068    85A      0.507920    86A      0.508576  
      87A      0.521824    88A      0.524154    89A      0.525909  
      90A      0.538007    91A      0.547766    92A      0.563793  
      93A      0.564450    94A      0.577097    95A      0.585705  
      96A      0.597785    97A      0.598101    98A      0.616258  
      99A      0.621489   100A      0.639987   101A      0.644129  
     102A      0.649550   103A      0.684178   104A      0.690413  
     105A      0.700639   106A      0.703808   107A      0.764677  
     108A      0.776643   109A      0.796876   110A      0.817344  
     111A      0.821952   112A      0.825806   113A      0.838119  
     114A      0.841042   115A      0.845534   116A      0.855227  
     117A      0.861446   118A      0.863953   119A      0.885601  
     120A      0.890388   121A      0.893299   122A      0.900588  
     123A      0.915720   124A      0.916269   125A      0.920000  
     126A      0.932241   127A      0.939068   128A      0.944434  
     129A      0.956621   130A      0.958549   131A      0.960665  
     132A      0.964282   133A      0.988098   134A      0.995743  
     135A      0.996851   136A      0.999957   137A      1.008134  
     138A      1.027632   139A      1.045997   140A      1.049278  
     141A      1.070532   142A      1.079806   143A      1.095661  
     144A      1.101110   145A      1.107818   146A      1.123911  
     147A      1.129857   148A      1.133051   149A      1.136453  
     150A      1.157776   151A      1.160851   152A      1.167808  
     153A      1.175875   154A      1.190027   155A      1.207115  
     156A      1.207731   157A      1.226145   158A      1.246128  
     159A      1.251511   160A      1.257629   161A      1.259335  
     162A      1.263261   163A      1.275964   164A      1.279068  
     165A      1.281116   166A      1.294623   167A      1.310329  
     168A      1.325354   169A      1.343839   170A      1.353976  
     171A      1.358124   172A      1.364783   173A      1.388654  
     174A      1.422651   175A      1.430003   176A      1.433241  
     177A      1.461449   178A      1.483951   179A      1.495906  
     180A      1.503559   181A      1.530080   182A      1.536142  
     183A      1.543191   184A      1.555570   185A      1.575225  
     186A      1.581700   187A      1.599805   188A      1.607693  
     189A      1.616577   190A      1.640219   191A      1.642868  
     192A      1.647254   193A      1.681464   194A      1.686347  
     195A      1.698788   196A      1.700477   197A      1.703012  
     198A      1.708946   199A      1.734078   200A      1.738222  
     201A      1.753685   202A      1.757462   203A      1.760576  
     204A      1.773358   205A      1.773643   206A      1.786476  
     207A      1.788299   208A      1.794020   209A      1.829490  
     210A      1.851074   211A      1.861243   212A      1.874012  
     213A      1.879204   214A      1.891143   215A      1.915912  
     216A      1.921523   217A      1.965491   218A      1.968829  
     219A      1.970468   220A      1.982301   221A      1.983760  
     222A      1.986244   223A      2.022041   224A      2.047570  
     225A      2.058367   226A      2.073452   227A      2.094693  
     228A      2.102591   229A      2.148327   230A      2.152512  
     231A      2.167608   232A      2.168600   233A      2.182656  
     234A      2.210102   235A      2.238984   236A      2.249289  
     237A      2.258289   238A      2.290416   239A      2.302090  
     240A      2.317098   241A      2.323585   242A      2.324327  
     243A      2.330522   244A      2.338012   245A      2.378271  
     246A      2.393563   247A      2.431833   248A      2.456628  
     249A      2.471989   250A      2.478027   251A      2.501389  
     252A      2.531990   253A      2.604245   254A      2.610334  
     255A      2.657555   256A      2.686794   257A      2.695379  
     258A      2.897111   259A      2.901352   260A      3.026370  
     261A      3.236083   262A      3.252422   263A      3.260704  
     264A      3.387187   265A      3.421023   266A      3.429261  
     267A      3.460792   268A      3.466256   269A      3.479626  
     270A      3.480431   271A      3.515729   272A      3.530098  
     273A      3.573606   274A      3.580505   275A      3.590698  
     276A      3.591004   277A      3.630361   278A      3.666376  
     279A      3.683966   280A      3.684104   281A      3.720530  
     282A      3.720767   283A      3.725157   284A      3.734005  
     285A      3.754971   286A      3.760448   287A      3.787714  
     288A      3.796622   289A      3.812493   290A      3.813442  
     291A      3.844203   292A      3.866094   293A      3.876824  
     294A      3.883538   295A      3.904026   296A      3.909234  
     297A      3.926331   298A      3.950543   299A      3.951021  
     300A      3.993226   301A      3.998961   302A      3.999587  
     303A      4.017611   304A      4.018200   305A      4.043108  
     306A      4.045567   307A      4.049451   308A      4.061597  
     309A      4.147406   310A      4.169416   311A      4.206067  
     312A      4.211634   313A      4.214660   314A      4.229578  
     315A      4.245399   316A      4.265727   317A      4.269847  
     318A      4.284106   319A      4.293671   320A      4.305265  
     321A      4.347613   322A      4.352036   323A      4.357558  
     324A      4.397132   325A      4.410168   326A      4.420495  
     327A      4.534699   328A      4.535305   329A      4.563923  
     330A      4.581250   331A      4.624253   332A      4.646654  
     333A      4.674542   334A      4.690496   335A      4.724806  
     336A      4.726229   337A      4.731149   338A      4.737954  
     339A      4.751567   340A      4.779716   341A      4.796581  
     342A      4.839024   343A      4.854618   344A      4.868132  
     345A      4.868875   346A      4.886629   347A      4.901296  
     348A      4.937801   349A      4.953019   350A      4.986418  
     351A      5.034404   352A      5.042504   353A      5.048945  
     354A      5.075395   355A      5.114526   356A      5.162592  
     357A      5.187297   358A      5.212162   359A      5.213812  
     360A      5.220117   361A      5.236112   362A      5.242704  
     363A      5.245890   364A      5.266457   365A      5.270009  
     366A      5.379831   367A      5.386042   368A      5.397036  
     369A      5.404994   370A      5.406217   371A      5.441512  
     372A      5.445379   373A      5.449141   374A      5.484207  
     375A      5.534032   376A      5.570104   377A      5.590564  
     378A      5.606326   379A      5.658236   380A      5.686856  
     381A      5.698524   382A      5.723388   383A      5.728383  
     384A      5.760402   385A      5.819437   386A      5.840515  
     387A      5.859040   388A      5.895377   389A      5.910804  
     390A      6.005688   391A      6.035661   392A      6.105357  
     393A      6.128593   394A      6.146514   395A      6.220990  
     396A      6.226129   397A      6.246606   398A      6.247549  
     399A      6.271300   400A      6.332214   401A      6.381618  
     402A      6.390961   403A      6.540067   404A      6.549570  
     405A      6.741615   406A      6.777792   407A      6.819474  
     408A      6.833649   409A      6.861221   410A      6.987468  
     411A     17.899505   412A     18.132703   413A     18.238521  
     414A     18.850784  

    Final Occupation by Irrep:
              A 
    DOCC [    17 ]

  Energy converged.

  @DF-RHF Final Energy:  -157.35544300471130

   => Energetics <=

    Nuclear Repulsion Energy =            131.4774989671513481
    One-Electron Energy =                -471.0643309126688791
    Two-Electron Energy =                 182.2313889408062266
    DFT Exchange-Correlation Energy =       0.0000000000000000
    Empirical Dispersion Energy =           0.0000000000000000
    PCM Polarization Energy =               0.0000000000000000
    EFP Energy =                            0.0000000000000000
    Total Energy =                       -157.3554430047113044



Properties will be evaluated at   0.000000,   0.000000,   0.000000 Bohr

Properties computed using the SCF density matrix

  Nuclear Dipole Moment: (a.u.)
     X:     0.0014      Y:     0.0011      Z:    -0.0007

  Electronic Dipole Moment: (a.u.)
     X:    -0.0013      Y:    -0.0011      Z:     0.0006

  Dipole Moment: (a.u.)
     X:     0.0000      Y:    -0.0001      Z:    -0.0001     Total:     0.0001

  Dipole Moment: (Debye)
     X:     0.0001      Y:    -0.0002      Z:    -0.0002     Total:     0.0003


*** tstop() called on cpu-6-2.local at Wed Jun 14 14:26:21 2017
Module time:
	user time   =      56.79 seconds =       0.95 minutes
	system time =       0.50 seconds =       0.01 minutes
	total time  =         57 seconds =       0.95 minutes
Total time:
	user time   =     355.21 seconds =       5.92 minutes
	system time =       4.58 seconds =       0.08 minutes
	total time  =        359 seconds =       5.98 minutes

  //>>>>>>>>>>>>>>>>>>>>>>>>>>>>>>>>>>>//
  //               DFMP2               //
  //<<<<<<<<<<<<<<<<<<<<<<<<<<<<<<<<<<<//

   => Loading Basis Set <=

    Name: (AUG-CC-PVTZ AUX)
    Role: RIFIT
    Keyword: DF_BASIS_MP2
    atoms 1-3, 5-6, 8-9, 11-13 entry H          line    29 file /cbio/jclab/home/chayas/anaconda/envs/py35/share/psi4/basis/aug-cc-pvtz-ri.gbs 
    atoms 4, 7, 10, 14         entry C          line   147 file /cbio/jclab/home/chayas/anaconda/envs/py35/share/psi4/basis/aug-cc-pvtz-ri.gbs 

	 --------------------------------------------------------
	                          DF-MP2                         
	      2nd-Order Density-Fitted Moller-Plesset Theory     
	              RMP2 Wavefunction,   1 Threads             
	                                                         
	        Rob Parrish, Justin Turney, Andy Simmonett,      
	           Ed Hohenstein, and C. David Sherrill          
	 --------------------------------------------------------

   => Auxiliary Basis Set <=

  Basis Set: (AUG-CC-PVTZ AUX)
    Blend: AUG-CC-PVTZ-RI
    Number of shells: 252
    Number of basis function: 884
    Number of Cartesian functions: 1094
    Spherical Harmonics?: true
    Max angular momentum: 4

	 --------------------------------------------------------
	                 NBF =   414, NAUX =   884
	 --------------------------------------------------------
	   CLASS    FOCC     OCC    AOCC    AVIR     VIR    FVIR
	   PAIRS       0      17      17     397     397       0
	 --------------------------------------------------------


         ------------------------------------------------------------
                                     CPHF                           
                                  Rob Parrish                       
         ------------------------------------------------------------

  ==> Geometry <==

    Molecular point group: c1
    Full point group: C1

    Geometry (in Angstrom), charge = 0, multiplicity = 1:

       Center              X                  Y                   Z               Mass       
    ------------   -----------------  -----------------  -----------------  -----------------
           H         -2.329557559787     0.058421329080     0.318277744662     1.007825032070
           H         -2.186024942932     1.698656834667    -0.306364883353     1.007825032070
           H         -1.886818386975     0.325335555426    -1.366258665832     1.007825032070
           C         -1.776321553020     0.697852445844    -0.356670476838    12.000000000000
           H          0.251953909883     1.348376332925    -0.645194130136     1.007825032070
           H         -0.190597879141     1.082471898528     1.043561206201     1.007825032070
           C         -0.293994097398     0.704953880724     0.033856653084    12.000000000000
           H         -0.252150224189    -1.348276481887     0.644802841106     1.007825032070
           H          0.191505844331    -1.082592299971    -1.043428544599     1.007825032070
           C          0.294155826580    -0.704907298866    -0.033708073875    12.000000000000
           H          2.185964752553    -1.698450498011     0.306816801515     1.007825032070
           H          1.887344212591    -0.323837981638     1.365652400427     1.007825032070
           H          2.329827826347    -0.058972067023    -0.318584592999     1.007825032070
           C          1.776038250518    -0.697994151444     0.356582352266    12.000000000000

  Nuclear repulsion =  131.477498967151320
  Reference energy  = -157.355443004711304

  ==> Basis Set <==

  Basis Set: AUG-CC-PVTZ
    Blend: AUG-CC-PVTZ
    Number of shells: 146
    Number of basis function: 414
    Number of Cartesian functions: 470
    Spherical Harmonics?: true
    Max angular momentum: 3

  ==> CGRSolver (by Rob Parrish) <==

   Number of roots    =         1
   Preconditioning    =    JACOBI
   Convergence cutoff =     1E-06
   Maximum iterations =       100

  ==> CPHFRHamiltonian (by Rob Parrish) <== 

  ==> DFJK: Density-Fitted J/K Matrices <==

    J tasked:                  Yes
    K tasked:                  Yes
    wK tasked:                  No
    OpenMP threads:              1
    Integrals threads:           1
    Memory (MB):              3576
    Algorithm:                Core
    Integral Cache:           NONE
    Schwarz Cutoff:          1E-12
    Fitting Condition:       1E-12

   => Auxiliary Basis Set <=

  Basis Set: (AUG-CC-PVTZ AUX)
    Blend: AUG-CC-PVTZ-JKFIT
    Number of shells: 260
    Number of basis function: 876
    Number of Cartesian functions: 1074
    Spherical Harmonics?: true
    Max angular momentum: 4

  ==> CPHF Iterations <==

  => Iterations <=

             Iter  Converged  Remaining    Residual
  CGR           1          0          1   8.307E-02
  CGR           2          0          1   1.321E-02
  CGR           3          0          1   3.486E-03
  CGR           4          0          1   8.131E-04
  CGR           5          0          1   1.195E-04
  CGR           6          0          1   2.154E-05
  CGR           7          0          1   3.672E-06
  CGR           8          1          0   8.130E-07

    CGRSolver converged.

  ==> DFCorrGrad: Density-Fitted Correlated Gradients <==

    OpenMP threads:              1
    Integrals threads:           1
    Memory (MB):              3576
    Schwarz Cutoff:          0E+00
    Fitting Condition:       1E-12

   => Auxiliary Basis Set <=

  Basis Set: (AUG-CC-PVTZ AUX)
    Blend: AUG-CC-PVTZ-JKFIT
    Number of shells: 260
    Number of basis function: 876
    Number of Cartesian functions: 1074
    Spherical Harmonics?: true
    Max angular momentum: 4

	-----------------------------------------------------------
	 ==================> DF-MP2 Energies <==================== 
	-----------------------------------------------------------
	 Reference Energy          =    -157.3554430047113044 [Eh]
	 Singles Energy            =      -0.0000000000000000 [Eh]
	 Same-Spin Energy          =      -0.1653408020608315 [Eh]
	 Opposite-Spin Energy      =      -0.6390758408360945 [Eh]
	 Correlation Energy        =      -0.8044166428969259 [Eh]
	 Total Energy              =    -158.1598596476082434 [Eh]
	-----------------------------------------------------------
	 ================> DF-SCS-MP2 Energies <================== 
	-----------------------------------------------------------
	 SCS Same-Spin Scale       =       0.3333333333333333 [-]
	 SCS Opposite-Spin Scale   =       1.2000000000000000 [-]
	 SCS Same-Spin Energy      =      -0.0551136006869438 [Eh]
	 SCS Opposite-Spin Energy  =      -0.7668910090033133 [Eh]
	 SCS Correlation Energy    =      -0.8220046096902571 [Eh]
	 SCS Total Energy          =    -158.1774476144015580 [Eh]
	-----------------------------------------------------------


  -Total Gradient:
     Atom            X                  Y                   Z
    ------   -----------------  -----------------  -----------------
       1        0.003389486469     0.002106887102    -0.001238443152
       2        0.003286197690    -0.002152117973     0.000473868326
       3        0.002187841428     0.001479132314     0.003327589122
       4       -0.013455198946    -0.003791213336    -0.004190713349
       5       -0.003332174970    -0.003871412991     0.000298470648
       6       -0.002403699832    -0.003419120957    -0.003078504035
       7        0.012488802861     0.015663317323     0.005920826635
       8        0.003366706161     0.003946748956    -0.000400974438
       9        0.002480415156     0.003388599509     0.003095951628
      10       -0.012405836550    -0.015693638432    -0.005712398566
      11       -0.003316309209     0.002325003164    -0.000516905806
      12       -0.002137668965    -0.001352081092    -0.003282866314
      13       -0.003280494127    -0.002037045419     0.001253357952
      14        0.013131932835     0.003406941828     0.004050741349


*** tstop() called on cpu-6-2.local at Wed Jun 14 14:30:24 2017
Module time:
	user time   =     295.49 seconds =       4.92 minutes
	system time =       4.02 seconds =       0.07 minutes
	total time  =        300 seconds =       5.00 minutes
Total time:
	user time   =     593.91 seconds =       9.90 minutes
	system time =       8.10 seconds =       0.14 minutes
	total time  =        602 seconds =      10.03 minutes

			-----------------------------------------
			 OPTKING 2.0: for geometry optimizations 
			  - R.A. King,  Bethel University        
			-----------------------------------------

	Previous internal coordinate definitions found.
	---Fragment 1 Geometry and Gradient---
	 H          -4.4022257988        0.1104003123        0.6014577716
	 H          -4.1309884618        3.2099962113       -0.5789457263
	 H          -3.5655700139        0.6147951010       -2.5818547051
	 C          -3.3567612591        1.3187500038       -0.6740095209
	 H           0.4761238878        2.5480619933       -1.2192402085
	 H          -0.3601777931        2.0455754348        1.9720448826
	 C          -0.5555683288        1.3321697709        0.0639798021
	 H          -0.4764948681       -2.5478733022        1.2185007794
	 H           0.3618935986       -2.0458029605       -1.9717941885
	 C           0.5558739526       -1.3320817439       -0.0636990281
	 H           4.1308747185       -3.2096062915        0.5797997278
	 H           3.5665636803       -0.6119650967        2.5807090295
	 H           4.4027365286       -0.1114410562       -0.6020376309
	 C           3.3562258950       -1.3190177886        0.6738429896
	             0.0033894865        0.0021068871       -0.0012384432
	             0.0032861977       -0.0021521180        0.0004738683
	             0.0021878414        0.0014791323        0.0033275891
	            -0.0134551989       -0.0037912133       -0.0041907133
	            -0.0033321750       -0.0038714130        0.0002984706
	            -0.0024036998       -0.0034191210       -0.0030785040
	             0.0124888029        0.0156633173        0.0059208266
	             0.0033667062        0.0039467490       -0.0004009744
	             0.0024804152        0.0033885995        0.0030959516
	            -0.0124058366       -0.0156936384       -0.0057123986
	            -0.0033163092        0.0023250032       -0.0005169058
	            -0.0021376690       -0.0013520811       -0.0032828663
	            -0.0032804941       -0.0020370454        0.0012533580
	             0.0131319328        0.0034069418        0.0040507413

	---Fragment 1 Intrafragment Coordinates---
	 - Coordinate -           - BOHR/RAD -       - ANG/DEG -
	 R(1,4)           =         2.044486	       1.081895
	 R(2,4)           =         2.045795	       1.082588
	 R(3,4)           =         2.044267	       1.081779
	 R(4,7)           =         2.896807	       1.532924
	 R(5,7)           =         2.046811	       1.083126
	 R(6,7)           =         2.046421	       1.082919
	 R(7,10)          =         2.889609	       1.529115
	 R(8,10)          =         2.046453	       1.082936
	 R(9,10)          =         2.046425	       1.082921
	 R(10,14)         =         2.895878	       1.532433
	 R(11,14)         =         2.045299	       1.082326
	 R(12,14)         =         2.044579	       1.081945
	 R(13,14)         =         2.044822	       1.082073
	 B(1,4,2)         =         1.900611	     108.896994
	 B(1,4,3)         =         1.903362	     109.054590
	 B(1,4,7)         =         1.915889	     109.772382
	 B(2,4,3)         =         1.899749	     108.847619
	 B(2,4,7)         =         1.928192	     110.477284
	 B(3,4,7)         =         1.915721	     109.762738
	 B(4,7,5)         =         1.907572	     109.295820
	 B(4,7,6)         =         1.908666	     109.358530
	 B(4,7,10)        =         1.935220	     110.879923
	 B(5,7,6)         =         1.906394	     109.228350
	 B(5,7,10)        =         1.903011	     109.034515
	 B(6,7,10)        =         1.902757	     109.019942
	 B(7,10,8)        =         1.902912	     109.028852
	 B(7,10,9)        =         1.903188	     109.044624
	 B(7,10,14)       =         1.935351	     110.887448
	 B(8,10,9)        =         1.906228	     109.218821
	 B(8,10,14)       =         1.908089	     109.325430
	 B(9,10,14)       =         1.907850	     109.311725
	 B(10,14,11)      =         1.928764	     110.510053
	 B(10,14,12)      =         1.916198	     109.790060
	 B(10,14,13)      =         1.916282	     109.794887
	 B(11,14,12)      =         1.900306	     108.879516
	 B(11,14,13)      =         1.900071	     108.866022
	 B(12,14,13)      =         1.901867	     108.968939
	 D(1,4,7,5)       =        -3.139814	    -179.898081
	 D(1,4,7,6)       =        -1.053650	     -60.369687
	 D(1,4,7,10)      =         1.045056	      59.877327
	 D(2,4,7,5)       =        -1.043556	     -59.791332
	 D(2,4,7,6)       =         1.042608	      59.737063
	 D(2,4,7,10)      =         3.141315	     179.984076
	 D(3,4,7,5)       =         1.051526	      60.248011
	 D(3,4,7,6)       =         3.137690	     179.776405
	 D(3,4,7,10)      =        -1.046789	     -59.976581
	 D(4,7,10,8)      =        -1.039967	     -59.585730
	 D(4,7,10,9)      =         1.039966	      59.585638
	 D(4,7,10,14)     =         3.141532	     179.996551
	 D(5,7,10,8)      =        -3.140994	    -179.965724
	 D(5,7,10,9)      =        -1.061062	     -60.794356
	 D(5,7,10,14)     =         1.040505	      59.616557
	 D(6,7,10,8)      =         1.062252	      60.862554
	 D(6,7,10,9)      =        -3.141001	    -179.966078
	 D(6,7,10,14)     =        -1.039434	     -59.555165
	 D(7,10,14,11)    =         3.141469	     179.992900
	 D(7,10,14,12)    =         1.045030	      59.875787
	 D(7,10,14,13)    =        -1.045516	     -59.903640
	 D(8,10,14,11)    =         1.042860	      59.751488
	 D(8,10,14,12)    =        -1.053579	     -60.365626
	 D(8,10,14,13)    =         3.139061	     179.854948
	 D(9,10,14,11)    =        -1.042921	     -59.754966
	 D(9,10,14,12)    =        -3.139360	    -179.872080
	 D(9,10,14,13)    =         1.053280	      60.348494

	Current energy   :      -158.1598596476

	Energy change for the previous step:
		Projected    :        -0.0039868147
		Actual       :        -0.0030402926

	Performing BFGS update.
	Previous computed or guess Hessian on step 1.
	Steps to be used in Hessian update: 1
	Adding user-defined constraint: Fragment 1; Coordinate 46:
		Value =    -1.046789; Fixed value    =    -1.047200
		Force =    -0.000216; Force constant =     0.525000
	Removing off-diagonal coupling between coordinate 46 and others.
	Taking RFO optimization step.
	Going to follow RFO solution 1.
	Using RFO vector 1.

	Determining step-restricting scale parameter for RS-RFO.
	Maximum step size allowed    0.10000

	 Iter      |step|        alpha        rfo_root  
	------------------------------------------------
	    0     0.14566       1.00000           1
	    1     0.11635      11.04126           1
	    2     0.10331      19.47667           1
	    3     0.10018      22.13554           1
	    4     0.10000      22.30147           1
	------------------------------------------------
	Norm of target step-size    0.10000
	Projected energy change by RFO approximation:        -0.0003312441

	Back-transformation to cartesian coordinates...
	Successfully converged to displaced geometry.

	--- Internal Coordinate Step in ANG or DEG, aJ/ANG or AJ/DEG ---
	 ---------------------------------------------------------------------------
	   Coordinate                Previous        Force       Change         New 
	   ----------                --------       ------       ------       ------
	    1 R(1,4)          =      1.081895     0.030904     0.005829     1.087724
	    2 R(2,4)          =      1.082588     0.026456     0.004779     1.087367
	    3 R(3,4)          =      1.081779     0.031623     0.005962     1.087741
	    4 R(4,7)          =      1.532924    -0.040087    -0.010958     1.521966
	    5 R(5,7)          =      1.083126     0.034326     0.006558     1.089684
	    6 R(6,7)          =      1.082919     0.035359     0.006749     1.089668
	    7 R(7,10)         =      1.529115    -0.039397    -0.009963     1.519152
	    8 R(8,10)         =      1.082936     0.035380     0.006741     1.089677
	    9 R(9,10)         =      1.082921     0.035456     0.006757     1.089678
	   10 R(10,14)        =      1.532433    -0.038278    -0.010506     1.521927
	   11 R(11,14)        =      1.082326     0.027858     0.005014     1.087340
	   12 R(12,14)        =      1.081945     0.030889     0.005826     1.087771
	   13 R(13,14)        =      1.082073     0.030186     0.005706     1.087779
	   14 B(1,4,2)        =    108.896994    -0.000155    -0.686054   108.210939
	   15 B(1,4,3)        =    109.054590    -0.000148    -0.808004   108.246586
	   16 B(1,4,7)        =    109.772382     0.000127     0.628922   110.401304
	   17 B(2,4,3)        =    108.847619    -0.000156    -0.690305   108.157314
	   18 B(2,4,7)        =    110.477284     0.000201     0.876474   111.353758
	   19 B(3,4,7)        =    109.762738     0.000122     0.609467   110.372205
	   20 B(4,7,5)        =    109.295820    -0.000023     0.164021   109.459841
	   21 B(4,7,6)        =    109.358530    -0.000030     0.107355   109.465885
	   22 B(4,7,10)       =    110.879923     0.000266     1.142978   112.022900
	   23 B(5,7,6)        =    109.228350    -0.000078    -1.206738   108.021612
	   24 B(5,7,10)       =    109.034515    -0.000067    -0.115537   108.918978
	   25 B(6,7,10)       =    109.019942    -0.000073    -0.155710   108.864232
	   26 B(7,10,8)       =    109.028852    -0.000070    -0.138854   108.889997
	   27 B(7,10,9)       =    109.044624    -0.000072    -0.146353   108.898272
	   28 B(7,10,14)      =    110.887448     0.000265     1.137923   112.025371
	   29 B(8,10,9)       =    109.218821    -0.000078    -1.203424   108.015398
	   30 B(8,10,14)      =    109.325430    -0.000026     0.138702   109.464132
	   31 B(9,10,14)      =    109.311725    -0.000024     0.148247   109.459972
	   32 B(10,14,11)     =    110.510053     0.000202     0.873041   111.383094
	   33 B(10,14,12)     =    109.790060     0.000120     0.594543   110.384603
	   34 B(10,14,13)     =    109.794887     0.000117     0.588544   110.383432
	   35 B(11,14,12)     =    108.879516    -0.000152    -0.673057   108.206459
	   36 B(11,14,13)     =    108.866022    -0.000151    -0.664107   108.201914
	   37 B(12,14,13)     =    108.968939    -0.000145    -0.788257   108.180682
	   38 D(1,4,7,5)      =   -179.898081     0.000011     0.494166  -179.403916
	   39 D(1,4,7,6)      =    -60.369687    -0.000018    -0.811797   -61.181484
	   40 D(1,4,7,10)     =     59.877327    -0.000005    -0.202490    59.674837
	   41 D(2,4,7,5)      =    -59.791332     0.000014     0.613745   -59.177587
	   42 D(2,4,7,6)      =     59.737063    -0.000015    -0.692218    59.044845
	   43 D(2,4,7,10)     =    179.984076    -0.000001    -0.082911   179.901165
	   44 D(3,4,7,5)      =     60.248011     0.000017     0.713769    60.961779
	   45 D(3,4,7,6)      =    179.776405    -0.000012    -0.592194   179.184211
	   46 D(3,4,7,10)     =    -59.976581     0.000001     0.017113   -59.959468
	   47 D(4,7,10,8)     =    -59.585730     0.000021     0.836126   -58.749604
[...]

  => Iterations <=

             Iter  Converged  Remaining    Residual
  CGR           1          0          1   8.473E-02
  CGR           2          0          1   1.340E-02
  CGR           3          0          1   3.542E-03
  CGR           4          0          1   8.146E-04
  CGR           5          0          1   1.191E-04
  CGR           6          0          1   2.184E-05
  CGR           7          0          1   3.750E-06
  CGR           8          1          0   8.458E-07

    CGRSolver converged.

  ==> DFCorrGrad: Density-Fitted Correlated Gradients <==

    OpenMP threads:              1
    Integrals threads:           1
    Memory (MB):              3576
    Schwarz Cutoff:          0E+00
    Fitting Condition:       1E-12

   => Auxiliary Basis Set <=

  Basis Set: (AUG-CC-PVTZ AUX)
    Blend: AUG-CC-PVTZ-JKFIT
    Number of shells: 260
    Number of basis function: 876
    Number of Cartesian functions: 1074
    Spherical Harmonics?: true
    Max angular momentum: 4

	-----------------------------------------------------------
	 ==================> DF-MP2 Energies <==================== 
	-----------------------------------------------------------
	 Reference Energy          =    -157.3564088689900871 [Eh]
	 Singles Energy            =      -0.0000000000000000 [Eh]
	 Same-Spin Energy          =      -0.1654584242075681 [Eh]
	 Opposite-Spin Energy      =      -0.6391449276830705 [Eh]
	 Correlation Energy        =      -0.8046033518906386 [Eh]
	 Total Energy              =    -158.1610122208807354 [Eh]
	-----------------------------------------------------------
	 ================> DF-SCS-MP2 Energies <================== 
	-----------------------------------------------------------
	 SCS Same-Spin Scale       =       0.3333333333333333 [-]
	 SCS Opposite-Spin Scale   =       1.2000000000000000 [-]
	 SCS Same-Spin Energy      =      -0.0551528080691894 [Eh]
	 SCS Opposite-Spin Energy  =      -0.7669739132196846 [Eh]
	 SCS Correlation Energy    =      -0.8221267212888739 [Eh]
	 SCS Total Energy          =    -158.1785355902789547 [Eh]
	-----------------------------------------------------------


  -Total Gradient:
     Atom            X                  Y                   Z
    ------   -----------------  -----------------  -----------------
       1       -0.000033997269    -0.000019891942     0.000026716259
       2       -0.000012466967     0.000044410194    -0.000002797297
       3       -0.000010534953     0.000040883426    -0.000069353131
       4        0.000102529124    -0.000120925301     0.000073520119
       5        0.000003622713    -0.000002839071    -0.000020828487
       6       -0.000001813256    -0.000017467961     0.000025329181
       7        0.000022555209     0.000051214893    -0.000063907645
       8       -0.000008274321     0.000005337268     0.000023834959
       9        0.000003980007     0.000012671632    -0.000023727262
      10       -0.000016376174    -0.000031317474     0.000038123085
      11        0.000013888758    -0.000043921790    -0.000003480876
      12        0.000015055449     0.000014305819     0.000045360379
      13        0.000032541363     0.000024846337    -0.000025001605
      14       -0.000110709678     0.000042693967    -0.000023787680


*** tstop() called on cpu-6-2.local at Wed Jun 14 14:45:55 2017
Module time:
	user time   =     318.04 seconds =       5.30 minutes
	system time =       4.08 seconds =       0.07 minutes
	total time  =        322 seconds =       5.37 minutes
Total time:
	user time   =    1513.92 seconds =      25.23 minutes
	system time =      20.40 seconds =       0.34 minutes
	total time  =       1533 seconds =      25.55 minutes

			-----------------------------------------
			 OPTKING 2.0: for geometry optimizations 
			  - R.A. King,  Bethel University        
			-----------------------------------------

	Previous internal coordinate definitions found.
	---Fragment 1 Geometry and Gradient---
	 H          -4.4376687528        0.0930027701        0.5815093776
	 H          -4.1631943184        3.1973448247       -0.5803551643
	 H          -3.6035722867        0.6097799855       -2.5929188723
	 C          -3.3548698779        1.3101320905       -0.6746829041
	 H           0.4686226161        2.5632634723       -1.2002601232
	 H          -0.3613867253        2.0648099701        1.9586182087
	 C          -0.5824621430        1.3079297404        0.0532601267
	 H          -0.4682240767       -2.5624841682        1.2024872969
	 H           0.3600204805       -2.0663649093       -1.9572218032
	 C           0.5822708066       -1.3081404782       -0.0525376274
	 H           4.1613636085       -3.1985112981        0.5889739831
	 H           3.6055989615       -0.5991263596        2.5880965250
	 H           4.4384426013       -0.1005289122       -0.5891038442
	 C           3.3550610372       -1.3100209069        0.6739750532
	            -0.0000339973       -0.0000198919        0.0000267163
	            -0.0000124670        0.0000444102       -0.0000027973
	            -0.0000105350        0.0000408834       -0.0000693531
	             0.0001025291       -0.0001209253        0.0000735201
	             0.0000036227       -0.0000028391       -0.0000208285
	            -0.0000018133       -0.0000174680        0.0000253292
	             0.0000225552        0.0000512149       -0.0000639076
	            -0.0000082743        0.0000053373        0.0000238350
	             0.0000039800        0.0000126716       -0.0000237273
	            -0.0000163762       -0.0000313175        0.0000381231
	             0.0000138888       -0.0000439218       -0.0000034809
	             0.0000150554        0.0000143058        0.0000453604
	             0.0000325414        0.0000248463       -0.0000250016
	            -0.0001107097        0.0000426940       -0.0000237877

	---Fragment 1 Intrafragment Coordinates---
	 - Coordinate -           - BOHR/RAD -       - ANG/DEG -
	 R(1,4)           =         2.057152	       1.088598
	 R(2,4)           =         2.055203	       1.087566
	 R(3,4)           =         2.057177	       1.088611
	 R(4,7)           =         2.866383	       1.516824
	 R(5,7)           =         2.062027	       1.091178
	 R(6,7)           =         2.062070	       1.091200
	 R(7,10)          =         2.865592	       1.516406
	 R(8,10)          =         2.062039	       1.091184
	 R(9,10)          =         2.062067	       1.091199
	 R(10,14)         =         2.866390	       1.516828
	 R(11,14)         =         2.055175	       1.087552
	 R(12,14)         =         2.057183	       1.088614
	 R(13,14)         =         2.057172	       1.088608
	 B(1,4,2)         =         1.884148	     107.953741
	 B(1,4,3)         =         1.880046	     107.718677
	 B(1,4,7)         =         1.932179	     110.705693
	 B(2,4,3)         =         1.883744	     107.930571
	 B(2,4,7)         =         1.949226	     111.682402
	 B(3,4,7)         =         1.932081	     110.700096
	 B(4,7,5)         =         1.915769	     109.765481
	 B(4,7,6)         =         1.915664	     109.759460
	 B(4,7,10)        =         1.965413	     112.609853
	 B(5,7,6)         =         1.858347	     106.475452
	 B(5,7,10)        =         1.903023	     109.035175
	 B(6,7,10)        =         1.902470	     109.003505
	 B(7,10,8)        =         1.902652	     109.013907
	 B(7,10,9)        =         1.902842	     109.024827
	 B(7,10,14)       =         1.965379	     112.607942
	 B(8,10,9)        =         1.858341	     106.475099
	 B(8,10,14)       =         1.915743	     109.763994
	 B(9,10,14)       =         1.915730	     109.763231
	 B(10,14,11)      =         1.949414	     111.693210
	 B(10,14,12)      =         1.932017	     110.696417
	 B(10,14,13)      =         1.932035	     110.697437
	 B(11,14,12)      =         1.884142	     107.953361
	 B(11,14,13)      =         1.884145	     107.953564
	 B(12,14,13)      =         1.879664	     107.696813
	 D(1,4,7,5)       =        -3.122887	    -178.928262
	 D(1,4,7,6)       =        -1.086113	     -62.229665
	 D(1,4,7,10)      =         1.036702	      59.398654
	 D(2,4,7,5)       =        -1.022816	     -58.603019
	 D(2,4,7,6)       =         1.013959	      58.095578
	 D(2,4,7,10)      =         3.136774	     179.723898
	 D(3,4,7,5)       =         1.076677	      61.689037
	 D(3,4,7,6)       =         3.113452	     178.387634
	 D(3,4,7,10)      =        -1.046919	     -59.984047
	 D(4,7,10,8)      =        -1.011669	     -57.964362
	 D(4,7,10,9)      =         1.010408	      57.892122
	 D(4,7,10,14)     =         3.141021	     179.967257
	 D(5,7,10,8)      =         3.140703	     179.949040
	 D(5,7,10,9)      =        -1.120405	     -64.194477
	 D(5,7,10,14)     =         1.010208	      57.880659
	 D(6,7,10,8)      =         1.118619	      64.092170
	 D(6,7,10,9)      =         3.140696	     179.948653
	 D(6,7,10,14)     =        -1.011876	     -57.976212
	 D(7,10,14,11)    =         3.141385	     179.988112
	 D(7,10,14,12)    =         1.041306	      59.662428
	 D(7,10,14,13)    =        -1.041704	     -59.685251
	 D(8,10,14,11)    =         1.018305	      58.344571
	 D(8,10,14,12)    =        -1.081774	     -61.981113
	 D(8,10,14,13)    =         3.118401	     178.671209
	 D(9,10,14,11)    =        -1.018486	     -58.354930
	 D(9,10,14,12)    =        -3.118565	    -178.680614
	 D(9,10,14,13)    =         1.081610	      61.971707

	Current energy   :      -158.1610122209

	Energy change for the previous step:
		Projected    :        -0.0000008183
		Actual       :        -0.0000035961

	Performing BFGS update.
	Previous computed or guess Hessian on step 1.
	Steps to be used in Hessian update: 4 3
	Adding user-defined constraint: Fragment 1; Coordinate 46:
		Value =    -1.046919; Fixed value    =    -1.047200
		Force =    -0.000169; Force constant =     0.600000
	Removing off-diagonal coupling between coordinate 46 and others.
	Taking RFO optimization step.
	Going to follow RFO solution 1.
	Using RFO vector 1.
	Norm of target step-size    0.00135
	Projected energy change by RFO approximation:        -0.0000003246

	Back-transformation to cartesian coordinates...
	Could not converge backtransformation.
	Using first guess instead.

	--- Internal Coordinate Step in ANG or DEG, aJ/ANG or AJ/DEG ---
	 ---------------------------------------------------------------------------
	   Coordinate                Previous        Force       Change         New 
	   ----------                --------       ------       ------       ------
	    1 R(1,4)          =      1.088598    -0.000379    -0.000076     1.088522
	    2 R(2,4)          =      1.087566    -0.000375    -0.000077     1.087489
	    3 R(3,4)          =      1.088611    -0.000429    -0.000086     1.088525
	    4 R(4,7)          =      1.516824     0.000422     0.000096     1.516920
	    5 R(5,7)          =      1.091178    -0.000105    -0.000025     1.091153
	    6 R(6,7)          =      1.091200    -0.000138    -0.000032     1.091168
	    7 R(7,10)         =      1.516406     0.000429     0.000087     1.516493
	    8 R(8,10)         =      1.091184    -0.000128    -0.000030     1.091155
	    9 R(9,10)         =      1.091199    -0.000139    -0.000032     1.091167
	   10 R(10,14)        =      1.516828     0.000407     0.000091     1.516920
	   11 R(11,14)        =      1.087552    -0.000379    -0.000078     1.087474
	   12 R(12,14)        =      1.088614    -0.000404    -0.000081     1.088533
	   13 R(13,14)        =      1.088608    -0.000388    -0.000078     1.088530
	   14 B(1,4,2)        =    107.953741     0.000000     0.003171   107.956912
	   15 B(1,4,3)        =    107.718677     0.000002     0.000014   107.718691
	   16 B(1,4,7)        =    110.705693    -0.000001    -0.007956   110.697737
	   17 B(2,4,3)        =    107.930571    -0.000001     0.006149   107.936720
	   18 B(2,4,7)        =    111.682402     0.000000     0.005236   111.687637
	   19 B(3,4,7)        =    110.700096    -0.000001    -0.006240   110.693855
	   20 B(4,7,5)        =    109.765481    -0.000001    -0.002421   109.763059
	   21 B(4,7,6)        =    109.759460    -0.000001    -0.002618   109.756842
	   22 B(4,7,10)       =    112.609853     0.000003     0.013902   112.623755
	   23 B(5,7,6)        =    106.475452    -0.000000    -0.014991   106.460461
	   24 B(5,7,10)       =    109.035175     0.000000     0.000311   109.035485
	   25 B(6,7,10)       =    109.003505    -0.000001     0.004233   109.007738
	   26 B(7,10,8)       =    109.013907    -0.000001     0.001901   109.015808
	   27 B(7,10,9)       =    109.024827    -0.000001     0.002489   109.027316
	   28 B(7,10,14)      =    112.607942     0.000003     0.014294   112.622235
	   29 B(8,10,9)       =    106.475099    -0.000000    -0.014937   106.460163
	   30 B(8,10,14)      =    109.763994    -0.000001    -0.002835   109.761158
	   31 B(9,10,14)      =    109.763231    -0.000001    -0.002513   109.760717
	   32 B(10,14,11)     =    111.693210     0.000001     0.004159   111.697369
	   33 B(10,14,12)     =    110.696417    -0.000001    -0.006114   110.690303
	   34 B(10,14,13)     =    110.697437    -0.000001    -0.005934   110.691503
	   35 B(11,14,12)     =    107.953361     0.000000     0.003179   107.956540
	   36 B(11,14,13)     =    107.953564     0.000000     0.003158   107.956722
	   37 B(12,14,13)     =    107.696813     0.000001     0.001910   107.698723
	   38 D(1,4,7,5)      =   -178.928262     0.000000    -0.006920  -178.935182
	   39 D(1,4,7,6)      =    -62.229665    -0.000000    -0.028023   -62.257688
	   40 D(1,4,7,10)     =     59.398654    -0.000000    -0.015039    59.383615
	   41 D(2,4,7,5)      =    -58.603019     0.000000    -0.004813   -58.607832
	   42 D(2,4,7,6)      =     58.095578    -0.000000    -0.025916    58.069662
	   43 D(2,4,7,10)     =    179.723898    -0.000000    -0.012932   179.710966
	   44 D(3,4,7,5)      =     61.689037    -0.000000     0.002238    61.691275
	   45 D(3,4,7,6)      =    178.387634    -0.000001    -0.018865   178.368769
	   46 D(3,4,7,10)     =    -59.984047    -0.000001    -0.005881   -59.989928
	   47 D(4,7,10,8)     =    -57.964362     0.000000     0.002764   -57.961598
	   48 D(4,7,10,9)     =     57.892122     0.000000    -0.012629    57.879492
	   49 D(4,7,10,14)    =    179.967257     0.000000    -0.004518   179.962740
	   50 D(5,7,10,8)     =    179.949040    -0.000000    -0.003667   179.945373
	   51 D(5,7,10,9)     =    -64.194477    -0.000000    -0.019060   -64.213537
	   52 D(5,7,10,14)    =     57.880659    -0.000000    -0.010949    57.869710
	   53 D(6,7,10,8)     =     64.092170     0.000000     0.011705    64.103874
	   54 D(6,7,10,9)     =    179.948653    -0.000000    -0.003688   179.944964
	   55 D(6,7,10,14)    =    -57.976212     0.000000     0.004423   -57.971788
	   56 D(7,10,14,11)   =    179.988112    -0.000000    -0.004037   179.984075
	   57 D(7,10,14,12)   =     59.662428    -0.000000    -0.006687    59.655741
	   58 D(7,10,14,13)   =    -59.685251     0.000000    -0.001292   -59.686543
	   59 D(8,10,14,11)   =     58.344571    -0.000000    -0.014155    58.330416
	   60 D(8,10,14,12)   =    -61.981113    -0.000000    -0.016805   -61.997918
	   61 D(8,10,14,13)   =    178.671209    -0.000000    -0.011410   178.659799
	   62 D(9,10,14,11)   =    -58.354930     0.000000     0.007063   -58.347867
	   63 D(9,10,14,12)   =   -178.680614     0.000000     0.004414  -178.676201
	   64 D(9,10,14,13)   =     61.971707     0.000000     0.009809    61.981516
	 ---------------------------------------------------------------------------
	Successfully symmetrized geometry.
	 Forces used to impose fixed constraints are not included.
	  Forces zeroed: 46 

  ==> Convergence Check <==

  Measures of convergence in internal coordinates in au.
  Criteria marked as inactive (o), active & met (*), and active & unmet ( ).
  ---------------------------------------------------------------------------------------------
   Step     Total Energy     Delta E     MAX Force     RMS Force      MAX Disp      RMS Disp   
  ---------------------------------------------------------------------------------------------
    Convergence Criteria    1.00e-06 *    3.00e-04 *             o    1.20e-03 *             o
  ---------------------------------------------------------------------------------------------
      5    -158.16101222   -3.60e-06      5.20e-05 *    2.25e-05 o    4.89e-04 *    1.69e-04 o  ~
  ---------------------------------------------------------------------------------------------


  **** Optimization is complete! (in 5 steps) ****

  ==> Optimization Summary <==

  Measures of convergence in internal coordinates in au.
  --------------------------------------------------------------------------------------------------------------- ~
   Step         Total Energy             Delta E       MAX Force       RMS Force        MAX Disp        RMS Disp  ~
  --------------------------------------------------------------------------------------------------------------- ~
      1    -158.156819355049   -158.156819355049      0.01306077      0.00562066      0.02504555      0.01250501  ~
      2    -158.159859647608     -0.003040292560      0.00486570      0.00224384      0.02846440      0.01252359  ~
      3    -158.160842720525     -0.000983072916      0.00144859      0.00056980      0.02684906      0.00947221  ~
      4    -158.161008624742     -0.000165904217      0.00041897      0.00013162      0.00402984      0.00132629  ~
      5    -158.161012220881     -0.000003596139      0.00005202      0.00002293      0.00048909      0.00016877  ~
  --------------------------------------------------------------------------------------------------------------- ~

	Writing optimization data to binary file.
	Final energy is   -158.1610122208807
	Final (previous) structure:
	Cartesian Geometry (in Angstrom)
	    H    -2.3483131632   0.0492149463   0.3077215092
	    H    -2.2030675482   1.6919620092  -0.3071107258
	    H    -1.9069283236   0.3226816706  -1.3721135709
	    C    -1.7753206771   0.6932920425  -0.3570268159
	    H     0.2479844079   1.3564206092  -0.6351503016
	    H    -0.1912376185   1.0926503763   1.0364561164
	    C    -0.3082256909   0.6921266090   0.0281840452
	    H    -0.2477735099  -1.3560082192   0.6363288712
	    H     0.1905146329  -1.0934732146  -1.0357171704
	    C     0.3081244401  -0.6922381267  -0.0278017150
	    H     2.2020987783  -1.6925792804   0.3116716083
	    H     1.9080007938  -0.3170440146   1.3695616947
	    H     2.3487226662  -0.0531976091  -0.3117403278
	    C     1.7754218343  -0.6932332067   0.3566522373
	Saving final (previous) structure.
			--------------------------
			 OPTKING Finished Execution 
			--------------------------

    Final optimized geometry and variables:
    Molecular point group: c1
    Full point group: C1

    Geometry (in Angstrom), charge = 0, multiplicity = 1:

    H           -2.348313163236     0.049214946272     0.307721509211
    H           -2.203067548249     1.691962009215    -0.307110725848
    H           -1.906928323614     0.322681670578    -1.372113570945
    C           -1.775320677144     0.693292042529    -0.357026815862
    H            0.247984407851     1.356420609160    -0.635150301588
    H           -0.191237618540     1.092650376262     1.036456116364
    C           -0.308225690946     0.692126609046     0.028184045161
    H           -0.247773509927    -1.356008219172     0.636328871150
    H            0.190514632906    -1.093473214628    -1.035717170422
    C            0.308124440082    -0.692238126696    -0.027801715000
    H            2.202098778255    -1.692579280350     0.311671608310
    H            1.908000793763    -0.317044014569     1.369561694658
    H            2.348722666233    -0.053197609141    -0.311740327835
    C            1.775421834327    -0.693233206718     0.356652237299

	Cleaning optimization helper files.

*** Psi4 exiting successfully. Buy a developer a beer!
