
    -----------------------------------------------------------------------
          Psi4: An Open-Source Ab Initio Electronic Structure Package
                               Psi4 1.1 release

                         Git: Rev {HEAD} add49b9 


    R. M. Parrish, L. A. Burns, D. G. A. Smith, A. C. Simmonett,
    A. E. DePrince III, E. G. Hohenstein, U. Bozkaya, A. Yu. Sokolov,
    R. Di Remigio, R. M. Richard, J. F. Gonthier, A. M. James,
    H. R. McAlexander, A. Kumar, M. Saitow, X. Wang, B. P. Pritchard,
    P. Verma, H. F. Schaefer III, K. Patkowski, R. A. King, E. F. Valeev,
    F. A. Evangelista, J. M. Turney, T. D. Crawford, and C. D. Sherrill,
    J. Chem. Theory Comput. in press (2017).
    (doi: 10.1021/acs.jctc.7b00174)

    -----------------------------------------------------------------------


    Psi4 started on: Wednesday, 14 June 2017 02:19PM

    Process ID:  17636
    PSIDATADIR: /cbio/jclab/home/chayas/anaconda/envs/py35/share/psi4
    Memory:     500.0 MiB
    Threads:    1
    
  ==> Input File <==

--------------------------------------------------------------------------

memory 5000 mb

molecule butane {
  symmetry C1
  0 1 
  H      2.025   0.865   -9.854
  H      1.576   0.906   -8.165
  H      1.790   2.398   -9.049
  C      2.142   1.395   -8.932
  H      4.169   2.051   -9.210
  H      3.731   1.788   -7.539
  C      3.631   1.416   -8.537
  H      3.665   -0.647   -7.940
  H      4.104   -0.384   -9.610
  C      4.203   -0.012   -8.612
  H      6.088   -0.983   -8.270
  H      5.791   0.381   -7.220
  H      6.230   0.644   -8.890
  C      5.691   0.009   -8.218
  units Angstrom
}

dih_string = "10 7 4 3 190"
set optking fixed_dihedral = $dih_string

optimize('MP2/aug-cc-pvtz')
--------------------------------------------------------------------------

  Memory set to   4.657 GiB by Python driver.
gradient() will perform analytic gradient computation.

*** tstart() called on gpu-2-5.local
*** at Wed Jun 14 14:19:25 2017

    SCF Algorithm Type (re)set to DF.

*** tstart() called on gpu-2-5.local
*** at Wed Jun 14 14:19:25 2017

   => Loading Basis Set <=

    Name: AUG-CC-PVTZ
    Role: ORBITAL
    Keyword: BASIS
    atoms 1-3, 5-6, 8-9, 11-13 entry H          line    34 file /cbio/jclab/home/chayas/anaconda/envs/py35/share/psi4/basis/aug-cc-pvtz.gbs 
    atoms 4, 7, 10, 14         entry C          line   221 file /cbio/jclab/home/chayas/anaconda/envs/py35/share/psi4/basis/aug-cc-pvtz.gbs 


         ---------------------------------------------------------
                                   SCF
            by Justin Turney, Rob Parrish, and Andy Simmonett
                              RHF Reference
                        1 Threads,   4768 MiB Core
         ---------------------------------------------------------

  ==> Geometry <==

    Molecular point group: c1
    Full point group: C1

    Geometry (in Angstrom), charge = 0, multiplicity = 1:

       Center              X                  Y                   Z               Mass       
    ------------   -----------------  -----------------  -----------------  -----------------
           H         -1.891776029323     0.163017352882    -1.279258676441     1.007825032070
           H         -2.340776029323     0.204017352882     0.409741323559     1.007825032070
           H         -2.126776029323     1.696017352882    -0.474258676441     1.007825032070
           C         -1.774776029323     0.693017352882    -0.357258676441    12.000000000000
           H          0.252223970677     1.349017352882    -0.635258676441     1.007825032070
           H         -0.185776029323     1.086017352882     1.035741323559     1.007825032070
           C         -0.285776029323     0.714017352882     0.037741323559    12.000000000000
           H         -0.251776029323    -1.348982647118     0.634741323559     1.007825032070
           H          0.187223970677    -1.085982647118    -1.035258676441     1.007825032070
           C          0.286223970677    -0.713982647118    -0.037258676441    12.000000000000
           H          2.171223970677    -1.684982647118     0.304741323559     1.007825032070
           H          1.874223970677    -0.320982647118     1.354741323559     1.007825032070
           H          2.313223970677    -0.057982647118    -0.315258676441     1.007825032070
           C          1.774223970677    -0.692982647118     0.356741323559    12.000000000000

  Running in c1 symmetry.

  Rotational constants: A =      0.76936  B =      0.12464  C =      0.11638 [cm^-1]
  Rotational constants: A =  23064.83030  B =   3736.76202  C =   3488.97865 [MHz]
  Nuclear repulsion =  131.818658641412924

  Charge       = 0
  Multiplicity = 1
  Electrons    = 34
  Nalpha       = 17
  Nbeta        = 17

  ==> Algorithm <==

  SCF Algorithm Type is DF.
  DIIS enabled.
  MOM disabled.
  Fractional occupation disabled.
  Guess Type is SAD.
  Energy threshold   = 1.00e-10
  Density threshold  = 1.00e-10
  Integral threshold = 0.00e+00

  ==> Primary Basis <==

  Basis Set: AUG-CC-PVTZ
    Blend: AUG-CC-PVTZ
    Number of shells: 146
    Number of basis function: 414
    Number of Cartesian functions: 470
    Spherical Harmonics?: true
    Max angular momentum: 3

   => Loading Basis Set <=

    Name: (AUG-CC-PVTZ AUX)
    Role: JKFIT
    Keyword: DF_BASIS_SCF
    atoms 1-3, 5-6, 8-9, 11-13 entry H          line    69 file /cbio/jclab/home/chayas/anaconda/envs/py35/share/psi4/basis/aug-cc-pvtz-jkfit.gbs 
    atoms 4, 7, 10, 14         entry C          line   161 file /cbio/jclab/home/chayas/anaconda/envs/py35/share/psi4/basis/aug-cc-pvtz-jkfit.gbs 

  ==> Pre-Iterations <==

   -------------------------------------------------------
    Irrep   Nso     Nmo     Nalpha   Nbeta   Ndocc  Nsocc
   -------------------------------------------------------
     A        414     414       0       0       0       0
   -------------------------------------------------------
    Total     414     414      17      17      17       0
   -------------------------------------------------------

  ==> Integral Setup <==

  ==> DFJK: Density-Fitted J/K Matrices <==

    J tasked:                  Yes
    K tasked:                  Yes
    wK tasked:                  No
    OpenMP threads:              1
    Integrals threads:           1
    Memory (MB):              3576
    Algorithm:                Core
    Integral Cache:           NONE
    Schwarz Cutoff:          1E-12
    Fitting Condition:       1E-12

   => Auxiliary Basis Set <=

  Basis Set: (AUG-CC-PVTZ AUX)
    Blend: AUG-CC-PVTZ-JKFIT
    Number of shells: 260
    Number of basis function: 876
    Number of Cartesian functions: 1074
    Spherical Harmonics?: true
    Max angular momentum: 4

  Minimum eigenvalue in the overlap matrix is 7.9207607796E-06.
  Using Symmetric Orthogonalization.

  SCF Guess: Superposition of Atomic Densities via on-the-fly atomic UHF.

  ==> Iterations <==

                           Total Energy        Delta E     RMS |[F,P]|

   @DF-RHF iter   0:  -159.17777059475827   -1.59178e+02   9.79896e-03 
   @DF-RHF iter   1:  -157.25547139788299    1.92230e+00   8.18294e-04 
   @DF-RHF iter   2:  -157.34331643876772   -8.78450e-02   2.33456e-04 DIIS
   @DF-RHF iter   3:  -157.35155229324823   -8.23585e-03   7.85322e-05 DIIS
   @DF-RHF iter   4:  -157.35238931192760   -8.37019e-04   2.07636e-05 DIIS
   @DF-RHF iter   5:  -157.35245634441080   -6.70325e-05   4.06394e-06 DIIS
   @DF-RHF iter   6:  -157.35245982569353   -3.48128e-06   8.46614e-07 DIIS
   @DF-RHF iter   7:  -157.35245996665807   -1.40965e-07   2.28657e-07 DIIS
   @DF-RHF iter   8:  -157.35245997493405   -8.27598e-09   4.78667e-08 DIIS
   @DF-RHF iter   9:  -157.35245997537024   -4.36188e-10   9.92217e-09 DIIS
   @DF-RHF iter  10:  -157.35245997539246   -2.22258e-11   2.02879e-09 DIIS
   @DF-RHF iter  11:  -157.35245997539255   -8.52651e-14   4.68309e-10 DIIS
   @DF-RHF iter  12:  -157.35245997539204    5.11591e-13   9.97566e-11 DIIS

  ==> Post-Iterations <==

    Orbital Energies (a.u.)
    -----------------------

    Doubly Occupied:                                                      

       1A    -11.207065     2A    -11.206475     3A    -11.198771  
       4A    -11.198641     5A     -1.070668     6A     -0.981167  
       7A     -0.861587     8A     -0.794851     9A     -0.647489  
      10A     -0.587742    11A     -0.575038    12A     -0.570800  
      13A     -0.514596    14A     -0.503302    15A     -0.476013  
      16A     -0.468553    17A     -0.441763  

    Virtual:                                                              

      18A      0.032268    19A      0.037061    20A      0.039645  
      21A      0.040911    22A      0.056620    23A      0.058506  
      24A      0.059660    25A      0.061153    26A      0.081979  
      27A      0.085058    28A      0.096713    29A      0.112371  
      30A      0.123311    31A      0.130745    32A      0.135628  
      33A      0.142013    34A      0.143715    35A      0.146826  
      36A      0.148424    37A      0.159571    38A      0.159795  
      39A      0.167851    40A      0.170478    41A      0.202204  
      42A      0.209435    43A      0.211740    44A      0.230011  
      45A      0.249371    46A      0.250710    47A      0.251838  
      48A      0.270207    49A      0.275363    50A      0.282040  
      51A      0.282611    52A      0.315991    53A      0.318662  
      54A      0.332206    55A      0.337803    56A      0.339707  
      57A      0.348532    58A      0.357311    59A      0.358569  
      60A      0.360437    61A      0.373926    62A      0.374358  
      63A      0.384460    64A      0.389044    65A      0.390440  
      66A      0.392307    67A      0.395392    68A      0.402692  
      69A      0.408809    70A      0.414562    71A      0.424519  
      72A      0.430238    73A      0.443630    74A      0.449203  
      75A      0.457620    76A      0.462276    77A      0.464667  
      78A      0.469405    79A      0.475868    80A      0.477409  
      81A      0.485332    82A      0.491778    83A      0.499427  
      84A      0.506100    85A      0.507361    86A      0.511465  
      87A      0.522977    88A      0.526226    89A      0.528961  
      90A      0.537350    91A      0.545972    92A      0.561866  
      93A      0.565406    94A      0.576137    95A      0.587170  
      96A      0.595877    97A      0.599068    98A      0.613613  
      99A      0.626680   100A      0.634386   101A      0.639621  
     102A      0.655937   103A      0.685578   104A      0.692000  
     105A      0.702768   106A      0.705791   107A      0.763954  
     108A      0.777626   109A      0.797349   110A      0.817040  
     111A      0.824081   112A      0.826755   113A      0.838960  
     114A      0.843474   115A      0.846436   116A      0.856903  
     117A      0.861573   118A      0.865267   119A      0.887756  
     120A      0.890919   121A      0.898165   122A      0.904454  
     123A      0.908918   124A      0.922206   125A      0.924659  
     126A      0.933651   127A      0.938856   128A      0.947106  
     129A      0.949529   130A      0.960520   131A      0.964320  
     132A      0.969204   133A      0.983034   134A      0.990893  
     135A      0.996244   136A      1.010677   137A      1.012563  
     138A      1.031003   139A      1.048561   140A      1.055573  
     141A      1.072163   142A      1.079505   143A      1.097263  
     144A      1.104805   145A      1.111800   146A      1.127585  
     147A      1.131784   148A      1.133413   149A      1.136937  
     150A      1.162159   151A      1.165655   152A      1.169126  
     153A      1.175034   154A      1.199861   155A      1.202846  
     156A      1.214753   157A      1.225902   158A      1.244141  
     159A      1.253517   160A      1.256573   161A      1.261555  
     162A      1.266677   163A      1.274622   164A      1.280420  
     165A      1.289712   166A      1.305521   167A      1.314728  
     168A      1.330215   169A      1.343647   170A      1.353223  
     171A      1.361819   172A      1.375228   173A      1.393323  
     174A      1.428794   175A      1.433141   176A      1.438772  
     177A      1.463187   178A      1.486201   179A      1.496162  
     180A      1.503350   181A      1.530172   182A      1.533294  
     183A      1.551205   184A      1.557715   185A      1.577587  
     186A      1.581512   187A      1.596732   188A      1.616337  
     189A      1.627881   190A      1.637590   191A      1.646560  
     192A      1.649819   193A      1.684258   194A      1.688380  
     195A      1.700568   196A      1.702967   197A      1.711999  
     198A      1.715594   199A      1.737693   200A      1.740376  
     201A      1.748918   202A      1.758334   203A      1.760945  
     204A      1.778339   205A      1.780360   206A      1.787613  
     207A      1.793754   208A      1.801615   209A      1.829348  
     210A      1.850418   211A      1.864109   212A      1.871109  
     213A      1.890348   214A      1.900353   215A      1.919129  
     216A      1.921598   217A      1.966872   218A      1.977058  
     219A      1.983729   220A      1.986544   221A      1.995055  
     222A      1.998872   223A      2.034539   224A      2.050954  
     225A      2.058608   226A      2.070213   227A      2.098344  
     228A      2.105034   229A      2.144993   230A      2.151182  
     231A      2.161461   232A      2.189850   233A      2.194256  
     234A      2.206273   235A      2.246686   236A      2.257827  
     237A      2.260630   238A      2.291070   239A      2.307397  
     240A      2.322284   241A      2.334047   242A      2.334151  
     243A      2.345383   244A      2.352887   245A      2.377126  
     246A      2.388462   247A      2.433039   248A      2.457897  
     249A      2.471791   250A      2.473679   251A      2.504253  
     252A      2.548495   253A      2.607195   254A      2.618791  
     255A      2.650641   256A      2.676411   257A      2.689538  
     258A      2.885777   259A      2.901426   260A      3.006697  
     261A      3.236480   262A      3.255589   263A      3.274080  
     264A      3.382029   265A      3.401138   266A      3.420849  
     267A      3.453328   268A      3.462571   269A      3.479687  
     270A      3.482446   271A      3.519677   272A      3.535481  
     273A      3.562765   274A      3.575476   275A      3.592684  
     276A      3.606667   277A      3.623890   278A      3.666474  
     279A      3.690242   280A      3.694402   281A      3.719926  
     282A      3.727539   283A      3.729592   284A      3.740273  
     285A      3.753397   286A      3.759576   287A      3.791063  
     288A      3.795405   289A      3.806813   290A      3.817824  
     291A      3.844741   292A      3.857609   293A      3.881693  
     294A      3.890537   295A      3.913922   296A      3.918864  
     297A      3.931679   298A      3.938360   299A      3.967447  
     300A      4.000550   301A      4.010000   302A      4.014581  
     303A      4.020309   304A      4.027987   305A      4.045901  
     306A      4.052671   307A      4.066544   308A      4.077479  
     309A      4.135004   310A      4.180175   311A      4.209209  
     312A      4.220142   313A      4.230596   314A      4.247151  
     315A      4.254812   316A      4.269575   317A      4.278472  
     318A      4.286395   319A      4.308493   320A      4.322691  
     321A      4.349784   322A      4.367108   323A      4.375103  
     324A      4.405309   325A      4.425748   326A      4.436484  
     327A      4.537651   328A      4.556042   329A      4.579613  
     330A      4.588979   331A      4.638858   332A      4.665182  
     333A      4.691115   334A      4.705861   335A      4.726375  
     336A      4.742733   337A      4.745367   338A      4.758558  
     339A      4.765951   340A      4.804688   341A      4.811904  
     342A      4.859180   343A      4.870128   344A      4.883146  
     345A      4.888592   346A      4.902909   347A      4.925860  
     348A      4.954166   349A      4.972828   350A      4.998624  
     351A      5.047006   352A      5.062214   353A      5.080020  
     354A      5.101671   355A      5.126994   356A      5.183756  
     357A      5.187088   358A      5.214813   359A      5.224159  
     360A      5.228585   361A      5.257533   362A      5.270842  
     363A      5.273920   364A      5.295336   365A      5.308087  
     366A      5.361780   367A      5.399584   368A      5.423481  
     369A      5.435872   370A      5.441156   371A      5.456692  
     372A      5.461829   373A      5.483639   374A      5.507888  
     375A      5.576259   376A      5.597451   377A      5.627193  
     378A      5.635811   379A      5.685500   380A      5.690405  
     381A      5.694551   382A      5.751980   383A      5.772778  
     384A      5.802046   385A      5.826667   386A      5.877402  
     387A      5.906151   388A      5.921971   389A      5.949986  
     390A      6.031055   391A      6.104930   392A      6.156531  
     393A      6.166911   394A      6.172714   395A      6.253778  
     396A      6.261970   397A      6.277887   398A      6.307046  
     399A      6.309908   400A      6.360158   401A      6.400282  
     402A      6.442278   403A      6.551363   404A      6.558161  
     405A      6.752220   406A      6.783476   407A      6.824615  
     408A      6.842533   409A      6.861893   410A      6.984419  
     411A     18.018689   412A     18.375366   413A     18.458171  
     414A     18.895392  

    Final Occupation by Irrep:
              A 
    DOCC [    17 ]

  Energy converged.

  @DF-RHF Final Energy:  -157.35245997539204

   => Energetics <=

    Nuclear Repulsion Energy =            131.8186586414129238
    One-Electron Energy =                -471.7331950004819419
    Two-Electron Energy =                 182.5620763836769811
    DFT Exchange-Correlation Energy =       0.0000000000000000
    Empirical Dispersion Energy =           0.0000000000000000
    PCM Polarization Energy =               0.0000000000000000
    EFP Energy =                            0.0000000000000000
    Total Energy =                       -157.3524599753920370



Properties will be evaluated at   0.000000,   0.000000,   0.000000 Bohr

Properties computed using the SCF density matrix

  Nuclear Dipole Moment: (a.u.)
     X:     0.0012      Y:    -0.0008      Z:     0.0004

  Electronic Dipole Moment: (a.u.)
     X:    -0.0011      Y:     0.0007      Z:     0.0004

  Dipole Moment: (a.u.)
     X:     0.0001      Y:    -0.0001      Z:     0.0008     Total:     0.0008

  Dipole Moment: (Debye)
     X:     0.0002      Y:    -0.0002      Z:     0.0020     Total:     0.0021


*** tstop() called on gpu-2-5.local at Wed Jun 14 14:20:50 2017
Module time:
	user time   =      84.60 seconds =       1.41 minutes
	system time =       0.65 seconds =       0.01 minutes
	total time  =         85 seconds =       1.42 minutes
Total time:
	user time   =      84.61 seconds =       1.41 minutes
	system time =       0.65 seconds =       0.01 minutes
	total time  =         85 seconds =       1.42 minutes

  //>>>>>>>>>>>>>>>>>>>>>>>>>>>>>>>>>>>//
  //               DFMP2               //
  //<<<<<<<<<<<<<<<<<<<<<<<<<<<<<<<<<<<//

   => Loading Basis Set <=

    Name: (AUG-CC-PVTZ AUX)
    Role: RIFIT
    Keyword: DF_BASIS_MP2
    atoms 1-3, 5-6, 8-9, 11-13 entry H          line    29 file /cbio/jclab/home/chayas/anaconda/envs/py35/share/psi4/basis/aug-cc-pvtz-ri.gbs 
    atoms 4, 7, 10, 14         entry C          line   147 file /cbio/jclab/home/chayas/anaconda/envs/py35/share/psi4/basis/aug-cc-pvtz-ri.gbs 

	 --------------------------------------------------------
	                          DF-MP2                         
	      2nd-Order Density-Fitted Moller-Plesset Theory     
	              RMP2 Wavefunction,   1 Threads             
	                                                         
	        Rob Parrish, Justin Turney, Andy Simmonett,      
	           Ed Hohenstein, and C. David Sherrill          
	 --------------------------------------------------------

   => Auxiliary Basis Set <=

  Basis Set: (AUG-CC-PVTZ AUX)
    Blend: AUG-CC-PVTZ-RI
    Number of shells: 252
    Number of basis function: 884
    Number of Cartesian functions: 1094
    Spherical Harmonics?: true
    Max angular momentum: 4

	 --------------------------------------------------------
	                 NBF =   414, NAUX =   884
	 --------------------------------------------------------
	   CLASS    FOCC     OCC    AOCC    AVIR     VIR    FVIR
	   PAIRS       0      17      17     397     397       0
	 --------------------------------------------------------


         ------------------------------------------------------------
                                     CPHF                           
                                  Rob Parrish                       
         ------------------------------------------------------------

  ==> Geometry <==

    Molecular point group: c1
    Full point group: C1

    Geometry (in Angstrom), charge = 0, multiplicity = 1:

       Center              X                  Y                   Z               Mass       
    ------------   -----------------  -----------------  -----------------  -----------------
           H         -1.891776029323     0.163017352882    -1.279258676441     1.007825032070
           H         -2.340776029323     0.204017352882     0.409741323559     1.007825032070
           H         -2.126776029323     1.696017352882    -0.474258676441     1.007825032070
           C         -1.774776029323     0.693017352882    -0.357258676441    12.000000000000
           H          0.252223970677     1.349017352882    -0.635258676441     1.007825032070
           H         -0.185776029323     1.086017352882     1.035741323559     1.007825032070
           C         -0.285776029323     0.714017352882     0.037741323559    12.000000000000
           H         -0.251776029323    -1.348982647118     0.634741323559     1.007825032070
           H          0.187223970677    -1.085982647118    -1.035258676441     1.007825032070
           C          0.286223970677    -0.713982647118    -0.037258676441    12.000000000000
           H          2.171223970677    -1.684982647118     0.304741323559     1.007825032070
           H          1.874223970677    -0.320982647118     1.354741323559     1.007825032070
           H          2.313223970677    -0.057982647118    -0.315258676441     1.007825032070
           C          1.774223970677    -0.692982647118     0.356741323559    12.000000000000

  Nuclear repulsion =  131.818658641412924
  Reference energy  = -157.352459975392037

  ==> Basis Set <==

  Basis Set: AUG-CC-PVTZ
    Blend: AUG-CC-PVTZ
    Number of shells: 146
    Number of basis function: 414
    Number of Cartesian functions: 470
    Spherical Harmonics?: true
    Max angular momentum: 3

  ==> CGRSolver (by Rob Parrish) <==

   Number of roots    =         1
   Preconditioning    =    JACOBI
   Convergence cutoff =     1E-06
   Maximum iterations =       100

  ==> CPHFRHamiltonian (by Rob Parrish) <== 

  ==> DFJK: Density-Fitted J/K Matrices <==

    J tasked:                  Yes
    K tasked:                  Yes
    wK tasked:                  No
    OpenMP threads:              1
    Integrals threads:           1
    Memory (MB):              3576
    Algorithm:                Core
    Integral Cache:           NONE
    Schwarz Cutoff:          1E-12
    Fitting Condition:       1E-12

   => Auxiliary Basis Set <=

  Basis Set: (AUG-CC-PVTZ AUX)
    Blend: AUG-CC-PVTZ-JKFIT
    Number of shells: 260
    Number of basis function: 876
    Number of Cartesian functions: 1074
    Spherical Harmonics?: true
    Max angular momentum: 4

  ==> CPHF Iterations <==

  => Iterations <=

             Iter  Converged  Remaining    Residual
  CGR           1          0          1   8.155E-02
  CGR           2          0          1   1.303E-02
  CGR           3          0          1   3.409E-03
  CGR           4          0          1   8.041E-04
  CGR           5          0          1   1.179E-04
  CGR           6          0          1   2.101E-05
  CGR           7          0          1   3.635E-06
  CGR           8          1          0   7.944E-07

    CGRSolver converged.

  ==> DFCorrGrad: Density-Fitted Correlated Gradients <==

    OpenMP threads:              1
    Integrals threads:           1
    Memory (MB):              3576
    Schwarz Cutoff:          0E+00
    Fitting Condition:       1E-12

   => Auxiliary Basis Set <=

  Basis Set: (AUG-CC-PVTZ AUX)
    Blend: AUG-CC-PVTZ-JKFIT
    Number of shells: 260
    Number of basis function: 876
    Number of Cartesian functions: 1074
    Spherical Harmonics?: true
    Max angular momentum: 4

	-----------------------------------------------------------
	 ==================> DF-MP2 Energies <==================== 
	-----------------------------------------------------------
	 Reference Energy          =    -157.3524599753920370 [Eh]
	 Singles Energy            =      -0.0000000000000002 [Eh]
	 Same-Spin Energy          =      -0.1653737646648040 [Eh]
	 Opposite-Spin Energy      =      -0.6387096683340476 [Eh]
	 Correlation Energy        =      -0.8040834329988518 [Eh]
	 Total Energy              =    -158.1565434083908883 [Eh]
	-----------------------------------------------------------
	 ================> DF-SCS-MP2 Energies <================== 
	-----------------------------------------------------------
	 SCS Same-Spin Scale       =       0.3333333333333333 [-]
	 SCS Opposite-Spin Scale   =       1.2000000000000000 [-]
	 SCS Same-Spin Energy      =      -0.0551245882216013 [Eh]
	 SCS Opposite-Spin Energy  =      -0.7664516020008572 [Eh]
	 SCS Correlation Energy    =      -0.8215761902224588 [Eh]
	 SCS Total Energy          =    -158.1740361656144955 [Eh]
	-----------------------------------------------------------


  -Total Gradient:
     Atom            X                  Y                   Z
    ------   -----------------  -----------------  -----------------
       1        0.003427219246     0.005087032615     0.010345034180
       2        0.007582218286     0.005164144579    -0.006067312162
       3        0.008250015143    -0.010241584938     0.001863818444
       4       -0.024380484102    -0.005464445298    -0.008632257367
       5       -0.007917826891    -0.007823547146     0.006260517005
       6       -0.003345535213    -0.006014676956    -0.011234756418
       7        0.021383229045     0.030955377010     0.011513796080
       8        0.008035670858     0.008640606584    -0.006352316572
       9        0.003283328465     0.005410500926     0.011537823641
      10       -0.021680062424    -0.031254266021    -0.011298490940
      11       -0.008403708172     0.009995846807    -0.000652520715
      12       -0.003302901989    -0.003987154664    -0.010994747062
      13       -0.007582901633    -0.006590841923     0.006228269121
      14        0.024651739382     0.006123008425     0.007483142766


*** tstop() called on gpu-2-5.local at Wed Jun 14 14:27:23 2017
Module time:
	user time   =     469.89 seconds =       7.83 minutes
	system time =       4.55 seconds =       0.08 minutes
	total time  =        478 seconds =       7.97 minutes
Total time:
	user time   =     469.90 seconds =       7.83 minutes
	system time =       4.55 seconds =       0.08 minutes
	total time  =        478 seconds =       7.97 minutes

			-----------------------------------------
			 OPTKING 2.0: for geometry optimizations 
			  - R.A. King,  Bethel University        
			-----------------------------------------

	Internal coordinates to be generated automatically.
	Detected frag 1 with atoms:  1 2 3 4 5 6 7 8 9 10 11 12 13 14
	---Fragment 1 Bond Connectivity---
	 1 : 4
	 2 : 4
	 3 : 4
	 4 : 1 2 3 7
	 5 : 7
	 6 : 7
	 7 : 4 5 6 10
	 8 : 10
	 9 : 10
	 10 : 7 8 9 14
	 11 : 14
	 12 : 14
	 13 : 14
	 14 : 10 11 12 13

	Assuming in current code that numbering for constraints corresponds to unified fragment.
	Fixed dihedral atom list: 
	    10     7     4     3
	---Fragment 1 Geometry and Gradient---
	 H          -3.5749386002        0.3080581519       -2.4174485516
	 H          -4.4234256338        0.3855369233        0.7742988869
	 H          -4.0190242414        3.2050083136       -0.8962190146
	 C          -3.3538406426        1.3096130023       -0.6751210571
	 H           0.4766342287        2.5492733455       -1.2004649220
	 H          -0.3510658175        2.0522753725        1.9572674460
	 C          -0.5400384308        1.3492972511        0.0713207654
	 H          -0.4757877422       -2.5492077611        1.1994872668
	 H           0.3538020301       -2.0522097881       -1.9563553752
	 C           0.5408849172       -1.3492316667       -0.0704086945
	 H           4.1030186777       -3.1841557417        0.5758776429
	 H           3.5417700163       -0.6065692965        2.5600900824
	 H           4.3713597886       -0.1095713235       -0.5957525595
	 C           3.3527974030       -1.3095474179        0.6741434018
	             0.0034272192        0.0050870326        0.0103450342
	             0.0075822183        0.0051641446       -0.0060673122
	             0.0082500151       -0.0102415849        0.0018638184
	            -0.0243804841       -0.0054644453       -0.0086322574
	            -0.0079178269       -0.0078235471        0.0062605170
	            -0.0033455352       -0.0060146770       -0.0112347564
	             0.0213832290        0.0309553770        0.0115137961
	             0.0080356709        0.0086406066       -0.0063523166
	             0.0032833285        0.0054105009        0.0115378236
	            -0.0216800624       -0.0312542660       -0.0112984909
	            -0.0084037082        0.0099958468       -0.0006525207
	            -0.0033029020       -0.0039871547       -0.0109947471
	            -0.0075829016       -0.0065908419        0.0062282691
	             0.0246517394        0.0061230084        0.0074831428

	Previous optimization step data not found.  Starting new optimization.

	---Fragment 1 Intrafragment Coordinates---
	 - Coordinate -           - BOHR/RAD -       - ANG/DEG -
	 R(1,4)           =         2.021806	       1.069894
	 R(2,4)           =         2.024536	       1.071338
	 R(3,4)           =         2.020860	       1.069393
	 R(4,7)           =         2.911397	       1.540645
	 R(5,7)           =         2.022623	       1.070326
	 R(6,7)           =         2.021555	       1.069761
	 R(7,10)          =         2.910419	       1.540128
	 R(8,10)          =         2.021436	       1.069698
	 R(9,10)          =         2.021379	       1.069668
	 R(10,14)         =         2.909087	       1.539422
	 R(11,14)         =         2.021545	       1.069756
	 R(12,14)         =         2.021555	       1.069761
	 R(13,14)         =         2.022387	       1.070201
	 B(1,4,2)         =         1.910364	     109.455802
	 B(1,4,3)         =         1.911702	     109.532468
	 B(1,4,7)         =         1.910692	     109.474567
	 B(2,4,3)         =         1.909782	     109.422426
	 B(2,4,7)         =         1.910565	     109.467316
	 B(3,4,7)         =         1.910694	     109.474720
	 B(4,7,5)         =         1.909937	     109.431343
	 B(4,7,6)         =         1.911630	     109.528316
	 B(4,7,10)        =         1.911154	     109.501062
	 B(5,7,6)         =         1.910605	     109.469614
	 B(5,7,10)        =         1.910047	     109.437654
	 B(6,7,10)        =         1.910425	     109.459295
	 B(7,10,8)        =         1.910303	     109.452301
	 B(7,10,9)        =         1.910824	     109.482155
	 B(7,10,14)       =         1.911213	     109.504437
	 B(8,10,9)        =         1.910417	     109.458846
	 B(8,10,14)       =         1.910766	     109.478806
	 B(9,10,14)       =         1.910276	     109.450772
	 B(10,14,11)      =         1.910943	     109.488965
	 B(10,14,12)      =         1.911204	     109.503926
	 B(10,14,13)      =         1.911557	     109.524173
	 B(11,14,12)      =         1.910410	     109.458432
	 B(11,14,13)      =         1.910054	     109.438058
	 B(12,14,13)      =         1.909629	     109.413709
	 D(1,4,7,5)       =         1.221942	      70.012116
	 D(1,4,7,6)       =        -2.966699	    -169.979332
	 D(1,4,7,10)      =        -0.871628	     -49.940624
	 D(2,4,7,5)       =        -2.967184	    -170.007108
	 D(2,4,7,6)       =        -0.872639	     -49.998556
	 D(2,4,7,10)      =         1.222431	      70.040151
	 D(3,4,7,5)       =        -0.873836	     -50.067109
	 D(3,4,7,6)       =         1.220708	      69.941443
	 D(3,4,7,10)      =        -2.967406	    -170.019849
	 D(4,7,10,8)      =        -1.047368	     -60.009777
	 D(4,7,10,9)      =         1.046677	      59.970178
	 D(4,7,10,14)     =         3.141107	     179.972182
	 D(5,7,10,8)      =        -3.140871	    -179.958653
	 D(5,7,10,9)      =        -1.046826	     -59.978698
	 D(5,7,10,14)     =         1.047604	      60.023306
	 D(6,7,10,8)      =         1.048439	      60.071149
	 D(6,7,10,9)      =        -3.140701	    -179.948896
	 D(6,7,10,14)     =        -1.046271	     -59.946893
	 D(7,10,14,11)    =         3.141408	     179.989448
	 D(7,10,14,12)    =         1.046747	      59.974196
	 D(7,10,14,13)    =        -1.047335	     -60.007849
	 D(8,10,14,11)    =         1.046982	      59.987626
	 D(8,10,14,12)    =        -1.047680	     -60.027626
	 D(8,10,14,13)    =         3.141424	     179.990329
	 D(9,10,14,11)    =        -1.047012	     -59.989345
	 D(9,10,14,12)    =         3.141512	     179.995403
	 D(9,10,14,13)    =         1.047431	      60.013359

	Current energy   :      -158.1565434084

	Generating empirical Hessian (Schlegel '84) for each fragment.
	Adding user-defined constraint: Fragment 1; Coordinate 46:
		Value =    -2.967406; Fixed value    =    -2.967060
		Force =     0.000173; Force constant =     0.500000
	Removing off-diagonal coupling between coordinate 46 and others.
	Taking RFO optimization step.
	Going to follow RFO solution 1.
	Using RFO vector 1.

	Determining step-restricting scale parameter for RS-RFO.
	Maximum step size allowed    0.10000

	 Iter      |step|        alpha        rfo_root  
	------------------------------------------------
	    0     0.18586       1.00000           1
	    1     0.14594       6.74029           1
	    2     0.11791      18.43260           1
	    3     0.10401      29.95540           1
	    4     0.10027      34.16899           1
	    5     0.10000      34.49317           1
	------------------------------------------------
	Norm of target step-size    0.10000
	Projected energy change by RFO approximation:        -0.0040491746

	Back-transformation to cartesian coordinates...
	Could not converge backtransformation.
	Using first guess instead.

	--- Internal Coordinate Step in ANG or DEG, aJ/ANG or AJ/DEG ---
	 ---------------------------------------------------------------------------
	   Coordinate                Previous        Force       Change         New 
	   ----------                --------       ------       ------       ------
	    1 R(1,4)          =      1.069894     0.097298     0.012043     1.081937
	    2 R(2,4)          =      1.071338     0.088209     0.010939     1.082277
	    3 R(3,4)          =      1.069393     0.103192     0.012727     1.082121
	    4 R(4,7)          =      1.540645    -0.046650    -0.006834     1.533811
	    5 R(5,7)          =      1.070326     0.103461     0.012749     1.083075
	    6 R(6,7)          =      1.069761     0.106159     0.013065     1.082825
	    7 R(7,10)         =      1.540128    -0.075416    -0.010973     1.529155
	    8 R(8,10)         =      1.069698     0.108433     0.013341     1.083039
	    9 R(9,10)         =      1.069668     0.106694     0.013126     1.082794
	   10 R(10,14)        =      1.539422    -0.047677    -0.006972     1.532450
	   11 R(11,14)        =      1.069756     0.101800     0.012564     1.082320
	   12 R(12,14)        =      1.069761     0.098473     0.012165     1.081926
	   13 R(13,14)        =      1.070201     0.095904     0.011858     1.082059
	   14 B(1,4,2)        =    109.455802    -0.000181    -0.484364   108.971438
	   15 B(1,4,3)        =    109.532468    -0.000261    -0.640074   108.892393
	   16 B(1,4,7)        =    109.474567     0.000121     0.261476   109.736043
	   17 B(2,4,3)        =    109.422426    -0.000252    -0.563041   108.859384
	   18 B(2,4,7)        =    109.467316     0.000155     0.374054   109.841370
	   19 B(3,4,7)        =    109.474720     0.000418     1.034296   110.509016
	   20 B(4,7,5)        =    109.431343    -0.000108    -0.108100   109.323243
	   21 B(4,7,6)        =    109.528316    -0.000130    -0.178528   109.349788
	   22 B(4,7,10)       =    109.501062     0.000643     1.403789   110.904851
	   23 B(5,7,6)        =    109.469614     0.000008    -0.247023   109.222591
	   24 B(5,7,10)       =    109.437654    -0.000207    -0.448293   108.989361
	   25 B(6,7,10)       =    109.459295    -0.000208    -0.432585   109.026710
	   26 B(7,10,8)       =    109.452301    -0.000193    -0.401325   109.050975
	   27 B(7,10,9)       =    109.482155    -0.000217    -0.472282   109.009873
	   28 B(7,10,14)      =    109.504437     0.000637     1.389775   110.894212
	   29 B(8,10,9)       =    109.458846     0.000011    -0.235809   109.223037
	   30 B(8,10,14)      =    109.478806    -0.000127    -0.166986   109.311820
	   31 B(9,10,14)      =    109.450772    -0.000110    -0.123804   109.326968
	   32 B(10,14,11)     =    109.488965     0.000412     1.019710   110.508675
	   33 B(10,14,12)     =    109.503926     0.000131     0.300328   109.804254
	   34 B(10,14,13)     =    109.524173     0.000112     0.255191   109.779364
	   35 B(11,14,12)     =    109.458432    -0.000249    -0.582296   108.876136
	   36 B(11,14,13)     =    109.438058    -0.000242    -0.566719   108.871339
	   37 B(12,14,13)     =    109.413709    -0.000165    -0.443946   108.969763
	   38 D(1,4,7,5)      =     70.012116     0.000016     0.220945    70.233062
	   39 D(1,4,7,6)      =   -169.979332    -0.000015    -0.254977  -170.234309
	   40 D(1,4,7,10)     =    -49.940624    -0.000001    -0.028234   -49.968858
	   41 D(2,4,7,5)      =   -170.007108     0.000004     0.017965  -169.989144
	   42 D(2,4,7,6)      =    -49.998556    -0.000027    -0.457958   -50.456514
	   43 D(2,4,7,10)     =     70.040151    -0.000013    -0.231215    69.808937
	   44 D(3,4,7,5)      =    -50.067109     0.000013     0.202345   -49.864764
	   45 D(3,4,7,6)      =     69.941443    -0.000018    -0.273577    69.667866
	   46 D(3,4,7,10)     =   -170.019849    -0.000004    -0.046834  -170.066684
	   47 D(4,7,10,8)     =    -60.009777     0.000030     0.457916   -59.551861
	   48 D(4,7,10,9)     =     59.970178    -0.000024    -0.352994    59.617184
	   49 D(4,7,10,14)    =    179.972182     0.000004     0.056606   180.028787
	   50 D(5,7,10,8)     =   -179.958653    -0.000000     0.006397  -179.952255
	   51 D(5,7,10,9)     =    -59.978698    -0.000055    -0.804513   -60.783211
	   52 D(5,7,10,14)    =     60.023306    -0.000027    -0.394913    59.628393
	   53 D(6,7,10,8)     =     60.071149     0.000055     0.834375    60.905524
	   54 D(6,7,10,9)     =   -179.948896     0.000001     0.023465  -179.925431
	   55 D(6,7,10,14)    =    -59.946893     0.000029     0.433065   -59.513828
	   56 D(7,10,14,11)   =    179.989448     0.000002     0.024782   180.014230
	   57 D(7,10,14,12)   =     59.974196    -0.000005    -0.081115    59.893081
	   58 D(7,10,14,13)   =    -60.007849     0.000007     0.121316   -59.886533
	   59 D(8,10,14,11)   =     59.987626    -0.000016    -0.237724    59.749902
	   60 D(8,10,14,12)   =    -60.027626    -0.000022    -0.343621   -60.371247
	   61 D(8,10,14,13)   =    179.990329    -0.000010    -0.141190   179.849140
	   62 D(9,10,14,11)   =    -59.989345     0.000015     0.226675   -59.762669
	   63 D(9,10,14,12)   =    179.995403     0.000008     0.120779   180.116182
	   64 D(9,10,14,13)   =     60.013359     0.000020     0.323210    60.336568
	 ---------------------------------------------------------------------------
	Successfully symmetrized geometry.
	 Forces used to impose fixed constraints are not included.
	  Forces zeroed: 46 

  ==> Convergence Check <==

  Measures of convergence in internal coordinates in au.
  Criteria marked as inactive (o), active & met (*), and active & unmet ( ).
  --------------------------------------------------------------------------------------------- ~
   Step     Total Energy     Delta E     MAX Force     RMS Force      MAX Disp      RMS Disp    ~
  --------------------------------------------------------------------------------------------- ~
    Convergence Criteria    1.00e-06 *    3.00e-04 *             o    1.20e-03 *             o  ~
  --------------------------------------------------------------------------------------------- ~
      1    -158.15654341   -1.58e+02      1.32e-02      5.60e-03 o    2.52e-02      1.25e-02 o  ~
  ---------------------------------------------------------------------------------------------

	Writing optimization data to binary file.
	Structure for next step:
	Cartesian Geometry (in Angstrom)
	    H    -1.9069585436   0.1660671920  -1.2897423645
	    H    -2.3570911266   0.2054750719   0.4129284958
	    H    -2.1422399433   1.7096639694  -0.4762884130
	    C    -1.7770602575   0.6980748641  -0.3566384880
	    H     0.2526305445   1.3474990133  -0.6458187513
	    H    -0.1899920292   1.0829009392   1.0429339718
	    C    -0.2937281269   0.7048586364   0.0335611039
	    H    -0.2516081982  -1.3487005556   0.6447588549
	    H     0.1919176185  -1.0822345316  -1.0434106269
	    C     0.2946008840  -0.7049866261  -0.0336665695
	    H     2.1864228818  -1.6984475748   0.3069838976
	    H     1.8877725331  -0.3240815642   1.3660359926
	    H     2.3300452464  -0.0588101805  -0.3181742200
	    C     1.7764241065  -0.6980357131   0.3569156465
			--------------------------
			 OPTKING Finished Execution 
			--------------------------

    Structure for next step:
    Molecular point group: c1
    Full point group: C1

    Geometry (in Angstrom), charge = 0, multiplicity = 1:

    H           -1.907023030639     0.166097143233    -1.289781428485
    H           -2.357155613603     0.205505023108     0.412889431793
    H           -2.142304430321     1.709693920576    -0.476327477050
    C           -1.777124744513     0.698104815311    -0.356677552045
    H            0.252566057482     1.347528964482    -0.645857815342
    H           -0.190056516204     1.082930890405     1.042894907812
    C           -0.293792613880     0.704888587576     0.033522039887
    H           -0.251672685172    -1.348670604352     0.644719790892
    H            0.191853131532    -1.082204580417    -1.043449690928
    C            0.294536397043    -0.704956674851    -0.033705633535
    H            2.186358394789    -1.698417623628     0.306944833550
    H            1.887708046095    -0.324051613037     1.365996928615
    H            2.329980759386    -0.058780229313    -0.318213284030
    C            1.776359619535    -0.698005761861     0.356876582481

gradient() will perform analytic gradient computation.

*** tstart() called on gpu-2-5.local
*** at Wed Jun 14 14:27:23 2017

    SCF Algorithm Type (re)set to DF.

*** tstart() called on gpu-2-5.local
*** at Wed Jun 14 14:27:23 2017

   => Loading Basis Set <=

    Name: AUG-CC-PVTZ
    Role: ORBITAL
    Keyword: BASIS
    atoms 1-3, 5-6, 8-9, 11-13 entry H          line    34 file /cbio/jclab/home/chayas/anaconda/envs/py35/share/psi4/basis/aug-cc-pvtz.gbs 
    atoms 4, 7, 10, 14         entry C          line   221 file /cbio/jclab/home/chayas/anaconda/envs/py35/share/psi4/basis/aug-cc-pvtz.gbs 


         ---------------------------------------------------------
                                   SCF
            by Justin Turney, Rob Parrish, and Andy Simmonett
                              RHF Reference
                        1 Threads,   4768 MiB Core
         ---------------------------------------------------------

  ==> Geometry <==

    Molecular point group: c1
    Full point group: C1

    Geometry (in Angstrom), charge = 0, multiplicity = 1:

       Center              X                  Y                   Z               Mass       
    ------------   -----------------  -----------------  -----------------  -----------------
           H         -1.907023030639     0.166097143233    -1.289781428485     1.007825032070
           H         -2.357155613603     0.205505023108     0.412889431793     1.007825032070
           H         -2.142304430321     1.709693920576    -0.476327477050     1.007825032070
           C         -1.777124744513     0.698104815311    -0.356677552045    12.000000000000
           H          0.252566057482     1.347528964482    -0.645857815342     1.007825032070
           H         -0.190056516204     1.082930890405     1.042894907812     1.007825032070
           C         -0.293792613880     0.704888587576     0.033522039887    12.000000000000
           H         -0.251672685172    -1.348670604352     0.644719790892     1.007825032070
           H          0.191853131532    -1.082204580417    -1.043449690928     1.007825032070
           C          0.294536397043    -0.704956674851    -0.033705633535    12.000000000000
           H          2.186358394789    -1.698417623628     0.306944833550     1.007825032070
           H          1.887708046095    -0.324051613037     1.365996928615     1.007825032070
           H          2.329980759386    -0.058780229313    -0.318213284030     1.007825032070
           C          1.776359619535    -0.698005761861     0.356876582481    12.000000000000

  Running in c1 symmetry.

  Rotational constants: A =      0.77655  B =      0.12366  C =      0.11587 [cm^-1]
  Rotational constants: A =  23280.50593  B =   3707.25341  C =   3473.59748 [MHz]
  Nuclear repulsion =  131.459526190755867

  Charge       = 0
  Multiplicity = 1
  Electrons    = 34
  Nalpha       = 17
  Nbeta        = 17

  ==> Algorithm <==

  SCF Algorithm Type is DF.
  DIIS enabled.
  MOM disabled.
  Fractional occupation disabled.
  Guess Type is READ.
  Energy threshold   = 1.00e-10
  Density threshold  = 1.00e-10
  Integral threshold = 0.00e+00

  ==> Primary Basis <==

  Basis Set: AUG-CC-PVTZ
    Blend: AUG-CC-PVTZ
    Number of shells: 146
    Number of basis function: 414
    Number of Cartesian functions: 470
    Spherical Harmonics?: true
    Max angular momentum: 3

   => Loading Basis Set <=

    Name: (AUG-CC-PVTZ AUX)
    Role: JKFIT
    Keyword: DF_BASIS_SCF
    atoms 1-3, 5-6, 8-9, 11-13 entry H          line    69 file /cbio/jclab/home/chayas/anaconda/envs/py35/share/psi4/basis/aug-cc-pvtz-jkfit.gbs 
    atoms 4, 7, 10, 14         entry C          line   161 file /cbio/jclab/home/chayas/anaconda/envs/py35/share/psi4/basis/aug-cc-pvtz-jkfit.gbs 

  Reading orbitals from file 180, no projection.

  ==> Pre-Iterations <==

   -------------------------------------------------------
    Irrep   Nso     Nmo     Nalpha   Nbeta   Ndocc  Nsocc
   -------------------------------------------------------
     A        414     414       0       0       0       0
   -------------------------------------------------------
    Total     414     414      17      17      17       0
   -------------------------------------------------------

  ==> Integral Setup <==

  ==> DFJK: Density-Fitted J/K Matrices <==

    J tasked:                  Yes
    K tasked:                  Yes
    wK tasked:                  No
    OpenMP threads:              1
    Integrals threads:           1
    Memory (MB):              3576
    Algorithm:                Core
    Integral Cache:           NONE
    Schwarz Cutoff:          1E-12
    Fitting Condition:       1E-12

   => Auxiliary Basis Set <=

  Basis Set: (AUG-CC-PVTZ AUX)
    Blend: AUG-CC-PVTZ-JKFIT
    Number of shells: 260
    Number of basis function: 876
    Number of Cartesian functions: 1074
    Spherical Harmonics?: true
    Max angular momentum: 4

  Minimum eigenvalue in the overlap matrix is 8.2332416298E-06.
  Using Symmetric Orthogonalization.

  SCF Guess: Orbitals guess was supplied from a previous computation.

  ==> Iterations <==

                           Total Energy        Delta E     RMS |[F,P]|

   @DF-RHF iter   0:  -157.27822289065415   -1.57278e+02   1.25926e-04 
   @DF-RHF iter   1:  -157.35475729177631   -7.65344e-02   5.17314e-05 
   @DF-RHF iter   2:  -157.35503095311856   -2.73661e-04   2.67726e-05 DIIS
   @DF-RHF iter   3:  -157.35508897862516   -5.80255e-05   2.86878e-06 DIIS
   @DF-RHF iter   4:  -157.35509042204964   -1.44342e-06   7.66485e-07 DIIS
   @DF-RHF iter   5:  -157.35509050874128   -8.66916e-08   2.54552e-07 DIIS
   @DF-RHF iter   6:  -157.35509051849209   -9.75081e-09   4.12811e-08 DIIS
   @DF-RHF iter   7:  -157.35509051887394   -3.81846e-10   5.91582e-09 DIIS
   @DF-RHF iter   8:  -157.35509051888033   -6.39488e-12   1.01041e-09 DIIS
   @DF-RHF iter   9:  -157.35509051888084   -5.11591e-13   2.26222e-10 DIIS
   @DF-RHF iter  10:  -157.35509051888081    2.84217e-14   4.24586e-11 DIIS

  ==> Post-Iterations <==

    Orbital Energies (a.u.)
    -----------------------

    Doubly Occupied:                                                      

       1A    -11.210312     2A    -11.209699     3A    -11.203812  
       4A    -11.203791     5A     -1.071389     6A     -0.979994  
       7A     -0.859944     8A     -0.789119     9A     -0.645400  
      10A     -0.585036    11A     -0.572204    12A     -0.571823  
      13A     -0.512885    14A     -0.499664    15A     -0.470228  
      16A     -0.465405    17A     -0.449385  

    Virtual:                                                              

      18A      0.032277    19A      0.036924    20A      0.039683  
      21A      0.040911    22A      0.056575    23A      0.058487  
      24A      0.059595    25A      0.061345    26A      0.081872  
      27A      0.085007    28A      0.096706    29A      0.112292  
      30A      0.123155    31A      0.130774    32A      0.135476  
      33A      0.141676    34A      0.143761    35A      0.146785  
      36A      0.148203    37A      0.159558    38A      0.159729  
      39A      0.168188    40A      0.170546    41A      0.202303  
      42A      0.210309    43A      0.211615    44A      0.229217  
      45A      0.248353    46A      0.249600    47A      0.250477  
      48A      0.269014    49A      0.273105    50A      0.281052  
      51A      0.281913    52A      0.316236    53A      0.318584  
      54A      0.331203    55A      0.337276    56A      0.339331  
      57A      0.347451    58A      0.356879    59A      0.357404  
      60A      0.359109    61A      0.373443    62A      0.374002  
      63A      0.384224    64A      0.388179    65A      0.390284  
      66A      0.391735    67A      0.395294    68A      0.402119  
      69A      0.406653    70A      0.413606    71A      0.424134  
      72A      0.429223    73A      0.442754    74A      0.445868  
      75A      0.453991    76A      0.459740    77A      0.463672  
      78A      0.467548    79A      0.473758    80A      0.475754  
      81A      0.483603    82A      0.490031    83A      0.497826  
      84A      0.505389    85A      0.505641    86A      0.510249  
      87A      0.522465    88A      0.526287    89A      0.528407  
      90A      0.537337    91A      0.547088    92A      0.563319  
      93A      0.565157    94A      0.575021    95A      0.587139  
      96A      0.595886    97A      0.598951    98A      0.612567  
      99A      0.625042   100A      0.635112   101A      0.639512  
     102A      0.655807   103A      0.682009   104A      0.688353  
     105A      0.702653   106A      0.703401   107A      0.764081  
     108A      0.777848   109A      0.796315   110A      0.815664  
     111A      0.823059   112A      0.826905   113A      0.836681  
     114A      0.842527   115A      0.845582   116A      0.857296  
     117A      0.861598   118A      0.863794   119A      0.885241  
     120A      0.889957   121A      0.896257   122A      0.900287  
     123A      0.908013   124A      0.919564   125A      0.922066  
     126A      0.931444   127A      0.938134   128A      0.943598  
     129A      0.948959   130A      0.957921   131A      0.963898  
     132A      0.967186   133A      0.982478   134A      0.989555  
     135A      0.995413   136A      1.008072   137A      1.011417  
     138A      1.030300   139A      1.047561   140A      1.055577  
     141A      1.069649   142A      1.077755   143A      1.094671  
     144A      1.102949   145A      1.109154   146A      1.125208  
     147A      1.128886   148A      1.132173   149A      1.137443  
     150A      1.158275   151A      1.162346   152A      1.166064  
     153A      1.170264   154A      1.194422   155A      1.201219  
     156A      1.213829   157A      1.222801   158A      1.241303  
     159A      1.250614   160A      1.252587   161A      1.257330  
     162A      1.262341   163A      1.272070   164A      1.277654  
     165A      1.286119   166A      1.301000   167A      1.310004  
     168A      1.326986   169A      1.338206   170A      1.351797  
     171A      1.357833   172A      1.372385   173A      1.393342  
     174A      1.424901   175A      1.429138   176A      1.435048  
     177A      1.458871   178A      1.482739   179A      1.494439  
     180A      1.499326   181A      1.526563   182A      1.531058  
     183A      1.549198   184A      1.556791   185A      1.573898  
     186A      1.583607   187A      1.594614   188A      1.613907  
     189A      1.626068   190A      1.633324   191A      1.641373  
     192A      1.643468   193A      1.681621   194A      1.685544  
     195A      1.698978   196A      1.699809   197A      1.708163  
     198A      1.711151   199A      1.733874   200A      1.741087  
     201A      1.747902   202A      1.758631   203A      1.760327  
     204A      1.774776   205A      1.780337   206A      1.785375  
     207A      1.791698   208A      1.797578   209A      1.826068  
     210A      1.847611   211A      1.858859   212A      1.867914  
     213A      1.885002   214A      1.894567   215A      1.917126  
     216A      1.920716   217A      1.959443   218A      1.970458  
     219A      1.973803   220A      1.981326   221A      1.988135  
     222A      1.992135   223A      2.026852   224A      2.043218  
     225A      2.054527   226A      2.065686   227A      2.093768  
     228A      2.100552   229A      2.138841   230A      2.146154  
     231A      2.155204   232A      2.177634   233A      2.188921  
     234A      2.209369   235A      2.241386   236A      2.251323  
     237A      2.254445   238A      2.285103   239A      2.299742  
     240A      2.311342   241A      2.324143   242A      2.327378  
     243A      2.331926   244A      2.342358   245A      2.373459  
     246A      2.379726   247A      2.430562   248A      2.452408  
     249A      2.472812   250A      2.474680   251A      2.506197  
     252A      2.537076   253A      2.605387   254A      2.613224  
     255A      2.651425   256A      2.677250   257A      2.702056  
     258A      2.897653   259A      2.910783   260A      3.026787  
     261A      3.240180   262A      3.253088   263A      3.267632  
     264A      3.388737   265A      3.409044   266A      3.426552  
     267A      3.456151   268A      3.465435   269A      3.474638  
     270A      3.482293   271A      3.516503   272A      3.533355  
     273A      3.571738   274A      3.579781   275A      3.593843  
     276A      3.602726   277A      3.632701   278A      3.657895  
     279A      3.684502   280A      3.684869   281A      3.717849  
     282A      3.723322   283A      3.730070   284A      3.739444  
     285A      3.749801   286A      3.761216   287A      3.789844  
     288A      3.792018   289A      3.809310   290A      3.816155  
     291A      3.847087   292A      3.856559   293A      3.878617  
     294A      3.886664   295A      3.911841   296A      3.916949  
     297A      3.927287   298A      3.939081   299A      3.964460  
     300A      3.991846   301A      3.997732   302A      4.001333  
     303A      4.014387   304A      4.018980   305A      4.040039  
     306A      4.049520   307A      4.057819   308A      4.063556  
     309A      4.133613   310A      4.179383   311A      4.201500  
     312A      4.210927   313A      4.219015   314A      4.231663  
     315A      4.239676   316A      4.260715   317A      4.269172  
     318A      4.280003   319A      4.293079   320A      4.311690  
     321A      4.340188   322A      4.359459   323A      4.360992  
     324A      4.397739   325A      4.411587   326A      4.418596  
     327A      4.525411   328A      4.535578   329A      4.564590  
     330A      4.580319   331A      4.624493   332A      4.647648  
     333A      4.672008   334A      4.691652   335A      4.710192  
     336A      4.724225   337A      4.725548   338A      4.744112  
     339A      4.757057   340A      4.781087   341A      4.790349  
     342A      4.834961   343A      4.854400   344A      4.867484  
     345A      4.872951   346A      4.887725   347A      4.909946  
     348A      4.937995   349A      4.951520   350A      4.991756  
     351A      5.031629   352A      5.046300   353A      5.051901  
     354A      5.077795   355A      5.111866   356A      5.163487  
     357A      5.177613   358A      5.192398   359A      5.201730  
     360A      5.220859   361A      5.235114   362A      5.243711  
     363A      5.248633   364A      5.273746   365A      5.292920  
     366A      5.342191   367A      5.383556   368A      5.395130  
     369A      5.412050   370A      5.419806   371A      5.436480  
     372A      5.451946   373A      5.462500   374A      5.479549  
     375A      5.546220   376A      5.567750   377A      5.595153  
     378A      5.609148   379A      5.657398   380A      5.674643  
     381A      5.696078   382A      5.730896   383A      5.732648  
     384A      5.759273   385A      5.817335   386A      5.826462  
     387A      5.864749   388A      5.890205   389A      5.913879  
     390A      6.001913   391A      6.049118   392A      6.111150  
     393A      6.130447   394A      6.150849   395A      6.218667  
     396A      6.223200   397A      6.237634   398A      6.257165  
     399A      6.272613   400A      6.328456   401A      6.384137  
     402A      6.388236   403A      6.544334   404A      6.550976  
     405A      6.739869   406A      6.778431   407A      6.821728  
     408A      6.836940   409A      6.858155   410A      6.987661  
     411A     17.928454   412A     18.191325   413A     18.256323  
     414A     18.846887  

    Final Occupation by Irrep:
              A 
    DOCC [    17 ]

  Energy converged.

  @DF-RHF Final Energy:  -157.35509051888081

   => Energetics <=

    Nuclear Repulsion Energy =            131.4595261907558665
    One-Electron Energy =                -471.0290557967816767
    Two-Electron Energy =                 182.2144390871449957
    DFT Exchange-Correlation Energy =       0.0000000000000000
    Empirical Dispersion Energy =           0.0000000000000000
    PCM Polarization Energy =               0.0000000000000000
    EFP Energy =                            0.0000000000000000
    Total Energy =                       -157.3550905188808144



Properties will be evaluated at   0.000000,   0.000000,   0.000000 Bohr

Properties computed using the SCF density matrix

  Nuclear Dipole Moment: (a.u.)
     X:     0.0002      Y:    -0.0003      Z:    -0.0002

  Electronic Dipole Moment: (a.u.)
     X:    -0.0002      Y:     0.0002      Z:     0.0009

  Dipole Moment: (a.u.)
     X:    -0.0000      Y:    -0.0002      Z:     0.0007     Total:     0.0007

  Dipole Moment: (Debye)
     X:    -0.0000      Y:    -0.0004      Z:     0.0018     Total:     0.0019


*** tstop() called on gpu-2-5.local at Wed Jun 14 14:28:41 2017
Module time:
	user time   =      76.67 seconds =       1.28 minutes
	system time =       0.52 seconds =       0.01 minutes
	total time  =         78 seconds =       1.30 minutes
Total time:
	user time   =     546.66 seconds =       9.11 minutes
	system time =       5.18 seconds =       0.09 minutes
	total time  =        556 seconds =       9.27 minutes

  //>>>>>>>>>>>>>>>>>>>>>>>>>>>>>>>>>>>//
  //               DFMP2               //
  //<<<<<<<<<<<<<<<<<<<<<<<<<<<<<<<<<<<//

   => Loading Basis Set <=

    Name: (AUG-CC-PVTZ AUX)
    Role: RIFIT
    Keyword: DF_BASIS_MP2
    atoms 1-3, 5-6, 8-9, 11-13 entry H          line    29 file /cbio/jclab/home/chayas/anaconda/envs/py35/share/psi4/basis/aug-cc-pvtz-ri.gbs 
    atoms 4, 7, 10, 14         entry C          line   147 file /cbio/jclab/home/chayas/anaconda/envs/py35/share/psi4/basis/aug-cc-pvtz-ri.gbs 

	 --------------------------------------------------------
	                          DF-MP2                         
	      2nd-Order Density-Fitted Moller-Plesset Theory     
	              RMP2 Wavefunction,   1 Threads             
	                                                         
	        Rob Parrish, Justin Turney, Andy Simmonett,      
	           Ed Hohenstein, and C. David Sherrill          
	 --------------------------------------------------------

   => Auxiliary Basis Set <=

  Basis Set: (AUG-CC-PVTZ AUX)
    Blend: AUG-CC-PVTZ-RI
    Number of shells: 252
    Number of basis function: 884
    Number of Cartesian functions: 1094
    Spherical Harmonics?: true
    Max angular momentum: 4

	 --------------------------------------------------------
	                 NBF =   414, NAUX =   884
	 --------------------------------------------------------
	   CLASS    FOCC     OCC    AOCC    AVIR     VIR    FVIR
	   PAIRS       0      17      17     397     397       0
	 --------------------------------------------------------


         ------------------------------------------------------------
                                     CPHF                           
                                  Rob Parrish                       
         ------------------------------------------------------------

  ==> Geometry <==

    Molecular point group: c1
    Full point group: C1

    Geometry (in Angstrom), charge = 0, multiplicity = 1:

       Center              X                  Y                   Z               Mass       
    ------------   -----------------  -----------------  -----------------  -----------------
           H         -1.907023030639     0.166097143233    -1.289781428485     1.007825032070
           H         -2.357155613603     0.205505023108     0.412889431793     1.007825032070
           H         -2.142304430321     1.709693920576    -0.476327477050     1.007825032070
           C         -1.777124744513     0.698104815311    -0.356677552045    12.000000000000
           H          0.252566057482     1.347528964482    -0.645857815342     1.007825032070
           H         -0.190056516204     1.082930890405     1.042894907812     1.007825032070
           C         -0.293792613880     0.704888587576     0.033522039887    12.000000000000
           H         -0.251672685172    -1.348670604352     0.644719790892     1.007825032070
           H          0.191853131532    -1.082204580417    -1.043449690928     1.007825032070
           C          0.294536397043    -0.704956674851    -0.033705633535    12.000000000000
           H          2.186358394789    -1.698417623628     0.306944833550     1.007825032070
           H          1.887708046095    -0.324051613037     1.365996928615     1.007825032070
           H          2.329980759386    -0.058780229313    -0.318213284030     1.007825032070
           C          1.776359619535    -0.698005761861     0.356876582481    12.000000000000

  Nuclear repulsion =  131.459526190755867
  Reference energy  = -157.355090518880814

  ==> Basis Set <==

  Basis Set: AUG-CC-PVTZ
    Blend: AUG-CC-PVTZ
    Number of shells: 146
    Number of basis function: 414
    Number of Cartesian functions: 470
    Spherical Harmonics?: true
    Max angular momentum: 3

  ==> CGRSolver (by Rob Parrish) <==

   Number of roots    =         1
   Preconditioning    =    JACOBI
   Convergence cutoff =     1E-06
   Maximum iterations =       100

  ==> CPHFRHamiltonian (by Rob Parrish) <== 

  ==> DFJK: Density-Fitted J/K Matrices <==

    J tasked:                  Yes
    K tasked:                  Yes
    wK tasked:                  No
    OpenMP threads:              1
    Integrals threads:           1
    Memory (MB):              3576
    Algorithm:                Core
    Integral Cache:           NONE
    Schwarz Cutoff:          1E-12
    Fitting Condition:       1E-12

   => Auxiliary Basis Set <=

  Basis Set: (AUG-CC-PVTZ AUX)
    Blend: AUG-CC-PVTZ-JKFIT
    Number of shells: 260
    Number of basis function: 876
    Number of Cartesian functions: 1074
    Spherical Harmonics?: true
    Max angular momentum: 4

  ==> CPHF Iterations <==

  => Iterations <=

             Iter  Converged  Remaining    Residual
  CGR           1          0          1   8.307E-02
  CGR           2          0          1   1.322E-02
  CGR           3          0          1   3.487E-03
  CGR           4          0          1   8.136E-04
  CGR           5          0          1   1.197E-04
  CGR           6          0          1   2.163E-05
  CGR           7          0          1   3.710E-06
  CGR           8          1          0   8.224E-07

    CGRSolver converged.

  ==> DFCorrGrad: Density-Fitted Correlated Gradients <==

    OpenMP threads:              1
    Integrals threads:           1
    Memory (MB):              3576
    Schwarz Cutoff:          0E+00
    Fitting Condition:       1E-12

   => Auxiliary Basis Set <=

  Basis Set: (AUG-CC-PVTZ AUX)
    Blend: AUG-CC-PVTZ-JKFIT
    Number of shells: 260
    Number of basis function: 876
    Number of Cartesian functions: 1074
    Spherical Harmonics?: true
    Max angular momentum: 4

	-----------------------------------------------------------
	 ==================> DF-MP2 Energies <==================== 
	-----------------------------------------------------------
	 Reference Energy          =    -157.3550905188808144 [Eh]
	 Singles Energy            =      -0.0000000000000000 [Eh]
	 Same-Spin Energy          =      -0.1653420094584317 [Eh]
	 Opposite-Spin Energy      =      -0.6391365501874015 [Eh]
	 Correlation Energy        =      -0.8044785596458331 [Eh]
	 Total Energy              =    -158.1595690785266584 [Eh]
	-----------------------------------------------------------
	 ================> DF-SCS-MP2 Energies <================== 
	-----------------------------------------------------------
	 SCS Same-Spin Scale       =       0.3333333333333333 [-]
	 SCS Opposite-Spin Scale   =       1.2000000000000000 [-]
	 SCS Same-Spin Energy      =      -0.0551140031528106 [Eh]
	 SCS Opposite-Spin Energy  =      -0.7669638602248817 [Eh]
	 SCS Correlation Energy    =      -0.8220778633776923 [Eh]
	 SCS Total Energy          =    -158.1771683822585146 [Eh]
	-----------------------------------------------------------


  -Total Gradient:
     Atom            X                  Y                   Z
    ------   -----------------  -----------------  -----------------
       1        0.002176711528     0.001323732527     0.003335484736
       2        0.003240941676     0.001984195484    -0.001000158662
       3        0.003435718074    -0.002410163018     0.000359020690
       4       -0.013225984468    -0.003175685304    -0.004494359389
       5       -0.003414243920    -0.003533263140     0.000546712041
       6       -0.002552610700    -0.003824032803    -0.002883963215
       7        0.012322062695     0.015544637021     0.006408080857
       8        0.003415685702     0.004053649467    -0.000330351907
       9        0.002424099850     0.003261262172     0.003126775613
      10       -0.012260301156    -0.015566788225    -0.006485306733
      11       -0.003316705609     0.002332641301    -0.000511198739
      12       -0.002157656856    -0.001346442384    -0.003286695186
      13       -0.003273709414    -0.002055394879     0.001266766944
      14        0.013185992600     0.003411651780     0.003949192949


*** tstop() called on gpu-2-5.local at Wed Jun 14 14:35:04 2017
Module time:
	user time   =     453.88 seconds =       7.56 minutes
	system time =       4.34 seconds =       0.07 minutes
	total time  =        461 seconds =       7.68 minutes
Total time:
	user time   =     923.87 seconds =      15.40 minutes
	system time =       9.00 seconds =       0.15 minutes
	total time  =        939 seconds =      15.65 minutes

			-----------------------------------------
			 OPTKING 2.0: for geometry optimizations 
			  - R.A. King,  Bethel University        
			-----------------------------------------

	Previous internal coordinate definitions found.
	---Fragment 1 Geometry and Gradient---
	 H          -3.6037512570        0.3138781122       -2.4373336711
	 H          -4.4543785623        0.3883482126        0.7802479493
	 H          -4.0483686666        3.2308532809       -0.9001284812
	 C          -3.3582790711        1.3192269130       -0.6740228911
	 H           0.4772806791        2.5464606990       -1.2204943918
	 H          -0.3591547654        2.0464428037        1.9707857611
	 C          -0.5551875801        1.3320463847        0.0633474748
	 H          -0.4755924501       -2.5486180857        1.2183438372
	 H           0.3625498763       -2.0450702767       -1.9718341493
	 C           0.5565931266       -1.3321750510       -0.0636944165
	 H           4.1316185945       -3.2095441679        0.5800416733
	 H           3.5672512260       -0.6123688016        2.5813600934
	 H           4.4030255301       -0.1110785354       -0.6013359587
	 C           3.3568331944       -1.3190397291        0.6743990041
	             0.0021767115        0.0013237325        0.0033354847
	             0.0032409417        0.0019841955       -0.0010001587
	             0.0034357181       -0.0024101630        0.0003590207
	            -0.0132259845       -0.0031756853       -0.0044943594
	            -0.0034142439       -0.0035332631        0.0005467120
	            -0.0025526107       -0.0038240328       -0.0028839632
	             0.0123220627        0.0155446370        0.0064080809
	             0.0034156857        0.0040536495       -0.0003303519
	             0.0024240999        0.0032612622        0.0031267756
	            -0.0122603012       -0.0155667882       -0.0064853067
	            -0.0033167056        0.0023326413       -0.0005111987
	            -0.0021576569       -0.0013464424       -0.0032866952
	            -0.0032737094       -0.0020553949        0.0012667669
	             0.0131859926        0.0034116518        0.0039491929

	---Fragment 1 Intrafragment Coordinates---
	 - Coordinate -           - BOHR/RAD -       - ANG/DEG -
	 R(1,4)           =         2.044565	       1.081937
	 R(2,4)           =         2.045207	       1.082277
	 R(3,4)           =         2.044911	       1.082121
	 R(4,7)           =         2.898483	       1.533811
	 R(5,7)           =         2.046715	       1.083075
	 R(6,7)           =         2.046243	       1.082825
	 R(7,10)          =         2.889684	       1.529155
	 R(8,10)          =         2.046647	       1.083039
	 R(9,10)          =         2.046184	       1.082794
	 R(10,14)         =         2.895911	       1.532450
	 R(11,14)         =         2.045288	       1.082320
	 R(12,14)         =         2.044544	       1.081926
	 R(13,14)         =         2.044795	       1.082059
	 B(1,4,2)         =         1.901910	     108.971438
	 B(1,4,3)         =         1.900531	     108.892393
	 B(1,4,7)         =         1.915255	     109.736043
	 B(2,4,3)         =         1.899955	     108.859384
	 B(2,4,7)         =         1.917094	     109.841370
	 B(3,4,7)         =         1.928746	     110.509016
	 B(4,7,5)         =         1.908051	     109.323243
	 B(4,7,6)         =         1.908514	     109.349788
	 B(4,7,10)        =         1.935655	     110.904851
	 B(5,7,6)         =         1.906294	     109.222591
	 B(5,7,10)        =         1.902223	     108.989361
	 B(6,7,10)        =         1.902875	     109.026710
	 B(7,10,8)        =         1.903299	     109.050975
	 B(7,10,9)        =         1.902581	     109.009873
	 B(7,10,14)       =         1.935469	     110.894212
	 B(8,10,9)        =         1.906302	     109.223037
	 B(8,10,14)       =         1.907851	     109.311820
	 B(9,10,14)       =         1.908116	     109.326968
	 B(10,14,11)      =         1.928740	     110.508675
	 B(10,14,12)      =         1.916446	     109.804254
	 B(10,14,13)      =         1.916011	     109.779364
	 B(11,14,12)      =         1.900247	     108.876136
	 B(11,14,13)      =         1.900163	     108.871339
	 B(12,14,13)      =         1.901881	     108.969763
	 D(1,4,7,5)       =         1.225798	      70.233062
	 D(1,4,7,6)       =        -2.971149	    -170.234309
	 D(1,4,7,10)      =        -0.872121	     -49.968858
	 D(2,4,7,5)       =        -2.966870	    -169.989144
	 D(2,4,7,6)       =        -0.880632	     -50.456514
	 D(2,4,7,10)      =         1.218396	      69.808937
	 D(3,4,7,5)       =        -0.870304	     -49.864764
	 D(3,4,7,6)       =         1.215934	      69.667866
	 D(3,4,7,10)      =        -2.968224	    -170.066684
	 D(4,7,10,8)      =        -1.039376	     -59.551861
	 D(4,7,10,9)      =         1.040516	      59.617184
	 D(4,7,10,14)     =        -3.141090	    -179.971213
	 D(5,7,10,8)      =        -3.140759	    -179.952255
	 D(5,7,10,9)      =        -1.060867	     -60.783211
	 D(5,7,10,14)     =         1.040712	      59.628393
	 D(6,7,10,8)      =         1.063002	      60.905524
	 D(6,7,10,9)      =        -3.140291	    -179.925431
	 D(6,7,10,14)     =        -1.038712	     -59.513828
	 D(7,10,14,11)    =        -3.141344	    -179.985770
	 D(7,10,14,12)    =         1.045331	      59.893081
	 D(7,10,14,13)    =        -1.045217	     -59.886533
	 D(8,10,14,11)    =         1.042833	      59.749902
	 D(8,10,14,12)    =        -1.053677	     -60.371247
	 D(8,10,14,13)    =         3.138960	     179.849140
	 D(9,10,14,11)    =        -1.043055	     -59.762669
	 D(9,10,14,12)    =        -3.139565	    -179.883818
	 D(9,10,14,13)    =         1.053072	      60.336568

	Current energy   :      -158.1595690785

	Energy change for the previous step:
		Projected    :        -0.0040491746
		Actual       :        -0.0030256701

	Performing BFGS update.
	Previous computed or guess Hessian on step 1.
	Steps to be used in Hessian update: 1
	Adding user-defined constraint: Fragment 1; Coordinate 46:
		Value =    -2.968224; Fixed value    =    -2.967060
		Force =     0.000611; Force constant =     0.525000
	Removing off-diagonal coupling between coordinate 46 and others.
	Taking RFO optimization step.
	Going to follow RFO solution 1.
	Using RFO vector 1.

	Determining step-restricting scale parameter for RS-RFO.
	Maximum step size allowed    0.10000

	 Iter      |step|        alpha        rfo_root  
	------------------------------------------------
	    0     0.15864       1.00000           1
	    1     0.13140       6.22429           1
	    2     0.10986      15.98012           1
	    3     0.10141      22.25566           1
	    4     0.10004      23.46710           1
	    5     0.10000      23.49930           1
	------------------------------------------------
	Norm of target step-size    0.10000
	Projected energy change by RFO approximation:        -0.0011675603

	Back-transformation to cartesian coordinates...
	Successfully converged to displaced geometry.

	--- Internal Coordinate Step in ANG or DEG, aJ/ANG or AJ/DEG ---
	 ---------------------------------------------------------------------------
	   Coordinate                Previous        Force       Change         New 
	   ----------                --------       ------       ------       ------
	    1 R(1,4)          =      1.081937     0.031216     0.005908     1.087845
	    2 R(2,4)          =      1.082277     0.027610     0.005191     1.087468
	    3 R(3,4)          =      1.082121     0.028442     0.005101     1.087221
	    4 R(4,7)          =      1.533811    -0.038695    -0.010623     1.523188
	    5 R(5,7)          =      1.083075     0.034287     0.006516     1.089591
	    6 R(6,7)          =      1.082825     0.035162     0.006674     1.089500
	    7 R(7,10)         =      1.529155    -0.039426    -0.009904     1.519250
	    8 R(8,10)         =      1.083039     0.035747     0.006774     1.089813
	    9 R(9,10)         =      1.082794     0.035278     0.006691     1.089485
	   10 R(10,14)        =      1.532450    -0.038420    -0.010477     1.521972
	   11 R(11,14)        =      1.082320     0.027921     0.005000     1.087320
	   12 R(12,14)        =      1.081926     0.030920     0.005802     1.087728
	   13 R(13,14)        =      1.082059     0.030314     0.005703     1.087762
	   14 B(1,4,2)        =    108.971438    -0.000152    -0.805042   108.166396
	   15 B(1,4,3)        =    108.892393    -0.000167    -0.828770   108.063624
	   16 B(1,4,7)        =    109.736043     0.000115     0.520882   110.256925
	   17 B(2,4,3)        =    108.859384    -0.000147    -0.545058   108.314327
	   18 B(2,4,7)        =    109.841370     0.000137     0.712496   110.553865
	   19 B(3,4,7)        =    110.509016     0.000204     0.873471   111.382486
	   20 B(4,7,5)        =    109.323243    -0.000017     0.166374   109.489617
	   21 B(4,7,6)        =    109.349788    -0.000031     0.124425   109.474213
	   22 B(4,7,10)       =    110.904851     0.000267     1.125367   112.030218
	   23 B(5,7,6)        =    109.222591    -0.000080    -1.192153   108.030438
	   24 B(5,7,10)       =    108.989361    -0.000075    -0.207569   108.781792
	   25 B(6,7,10)       =    109.026710    -0.000068    -0.079890   108.946820
	   26 B(7,10,8)       =    109.050975    -0.000064    -0.097348   108.953627
	   27 B(7,10,9)       =    109.009873    -0.000078    -0.188833   108.821040
	   28 B(7,10,14)      =    110.894212     0.000265     1.115403   112.009615
	   29 B(8,10,9)       =    109.223037    -0.000078    -1.174148   108.048889
	   30 B(8,10,14)      =    109.311820    -0.000029     0.126892   109.438712
	   31 B(9,10,14)      =    109.326968    -0.000020     0.156144   109.483112
	   32 B(10,14,11)     =    110.508675     0.000201     0.860076   111.368750
	   33 B(10,14,12)     =    109.804254     0.000122     0.599583   110.403837
	   34 B(10,14,13)     =    109.779364     0.000115     0.575447   110.354811
	   35 B(11,14,12)     =    108.876136    -0.000153    -0.668040   108.208096
	   36 B(11,14,13)     =    108.871339    -0.000150    -0.655722   108.215617
	   37 B(12,14,13)     =    108.969763    -0.000145    -0.779568   108.190195
	   38 D(1,4,7,5)      =     70.233062     0.000012     0.374376    70.607437
	   39 D(1,4,7,6)      =   -170.234309    -0.000017    -0.902576  -171.136884
	   40 D(1,4,7,10)     =    -49.968858    -0.000002    -0.197029   -50.165887
	   41 D(2,4,7,5)      =   -169.989144     0.000005     0.154732  -169.834412
	   42 D(2,4,7,6)      =    -50.456514    -0.000024    -1.122219   -51.578733
	   43 D(2,4,7,10)     =     69.808937    -0.000009    -0.416673    69.392264
	   44 D(3,4,7,5)      =    -49.864764     0.000013     0.508642   -49.356122
	   45 D(3,4,7,6)      =     69.667866    -0.000016    -0.768309    68.899557
	   46 D(3,4,7,10)     =   -170.066684    -0.000001    -0.062763  -170.129446
	   47 D(4,7,10,8)     =    -59.551861     0.000022     0.878944   -58.672917
[...]

  ==> CPHF Iterations <==

  => Iterations <=

             Iter  Converged  Remaining    Residual
  CGR           1          0          1   8.473E-02
  CGR           2          0          1   1.341E-02
  CGR           3          0          1   3.543E-03
  CGR           4          0          1   8.154E-04
  CGR           5          0          1   1.194E-04
  CGR           6          0          1   2.202E-05
  CGR           7          0          1   3.830E-06
  CGR           8          1          0   8.739E-07

    CGRSolver converged.

  ==> DFCorrGrad: Density-Fitted Correlated Gradients <==

    OpenMP threads:              1
    Integrals threads:           1
    Memory (MB):              3576
    Schwarz Cutoff:          0E+00
    Fitting Condition:       1E-12

   => Auxiliary Basis Set <=

  Basis Set: (AUG-CC-PVTZ AUX)
    Blend: AUG-CC-PVTZ-JKFIT
    Number of shells: 260
    Number of basis function: 876
    Number of Cartesian functions: 1074
    Spherical Harmonics?: true
    Max angular momentum: 4

	-----------------------------------------------------------
	 ==================> DF-MP2 Energies <==================== 
	-----------------------------------------------------------
	 Reference Energy          =    -157.3561019212247913 [Eh]
	 Singles Energy            =      -0.0000000000000000 [Eh]
	 Same-Spin Energy          =      -0.1654611580576043 [Eh]
	 Opposite-Spin Energy      =      -0.6391960098187209 [Eh]
	 Correlation Energy        =      -0.8046571678763252 [Eh]
	 Total Energy              =    -158.1607590891011057 [Eh]
	-----------------------------------------------------------
	 ================> DF-SCS-MP2 Energies <================== 
	-----------------------------------------------------------
	 SCS Same-Spin Scale       =       0.3333333333333333 [-]
	 SCS Opposite-Spin Scale   =       1.2000000000000000 [-]
	 SCS Same-Spin Energy      =      -0.0551537193525347 [Eh]
	 SCS Opposite-Spin Energy  =      -0.7670352117824651 [Eh]
	 SCS Correlation Energy    =      -0.8221889311349999 [Eh]
	 SCS Total Energy          =    -158.1782908523597939 [Eh]
	-----------------------------------------------------------


  -Total Gradient:
     Atom            X                  Y                   Z
    ------   -----------------  -----------------  -----------------
       1       -0.000022124169    -0.000016444149    -0.000016497938
       2       -0.000034403697    -0.000013497069     0.000049683782
       3        0.000356635218     0.000014025917    -0.001465440376
       4       -0.000229427575     0.000053322122     0.001425740301
       5       -0.000009089846     0.000003645918     0.000003395720
       6       -0.000007089490    -0.000019119345     0.000054491886
       7       -0.000257021179    -0.000210351819     0.000992167549
       8       -0.000017655589    -0.000009774700     0.000034141018
       9        0.000005963079     0.000012567782    -0.000007986962
      10        0.000269497498     0.000146023342    -0.001053138448
      11        0.000014789194    -0.000046457743    -0.000000882984
      12        0.000013877866     0.000017199504     0.000049272008
      13        0.000038445800     0.000026080085    -0.000024438191
      14       -0.000122397107     0.000042780158    -0.000040507366


*** tstop() called on gpu-2-5.local at Wed Jun 14 14:58:26 2017
Module time:
	user time   =     451.20 seconds =       7.52 minutes
	system time =       4.31 seconds =       0.07 minutes
	total time  =        460 seconds =       7.67 minutes
Total time:
	user time   =    2286.43 seconds =      38.11 minutes
	system time =      22.24 seconds =       0.37 minutes
	total time  =       2341 seconds =      39.02 minutes

			-----------------------------------------
			 OPTKING 2.0: for geometry optimizations 
			  - R.A. King,  Bethel University        
			-----------------------------------------

	Previous internal coordinate definitions found.
	---Fragment 1 Geometry and Gradient---
	 H          -3.6491776736        0.3233545027       -2.4408545821
	 H          -4.4822774748        0.3613041105        0.7740687432
	 H          -4.0820648053        3.2224515474       -0.8921099108
	 C          -3.3579025086        1.3132226695       -0.6601609463
	 H           0.4622553655        2.5457902073       -1.2420795321
	 H          -0.3280560738        2.0919545116        1.9327693685
	 C          -0.5770509426        1.3106674452        0.0410926176
	 H          -0.4781984391       -2.5690043176        1.1746119887
	 H           0.3762535886       -2.0523181256       -1.9749459380
	 C           0.5838972188       -1.3072898845       -0.0638469905
	 H           4.1581237096       -3.2038591224        0.5859851844
	 H           3.5858474279       -0.6266327893        2.6089844797
	 H           4.4434830743       -0.0930330939       -0.5558790139
	 C           3.3505364719       -1.3166008544        0.6853886236
	            -0.0000221242       -0.0000164441       -0.0000164979
	            -0.0000344037       -0.0000134971        0.0000496838
	             0.0003566352        0.0000140259       -0.0014654404
	            -0.0002294276        0.0000533221        0.0014257403
	            -0.0000090898        0.0000036459        0.0000033957
	            -0.0000070895       -0.0000191193        0.0000544919
	            -0.0002570212       -0.0002103518        0.0009921675
	            -0.0000176556       -0.0000097747        0.0000341410
	             0.0000059631        0.0000125678       -0.0000079870
	             0.0002694975        0.0001460233       -0.0010531384
	             0.0000147892       -0.0000464577       -0.0000008830
	             0.0000138779        0.0000171995        0.0000492720
	             0.0000384458        0.0000260801       -0.0000244382
	            -0.0001223971        0.0000427802       -0.0000405074

	---Fragment 1 Intrafragment Coordinates---
	 - Coordinate -           - BOHR/RAD -       - ANG/DEG -
	 R(1,4)           =         2.058045	       1.089071
	 R(2,4)           =         2.056060	       1.088020
	 R(3,4)           =         2.055083	       1.087503
	 R(4,7)           =         2.867908	       1.517632
	 R(5,7)           =         2.062090	       1.091211
	 R(6,7)           =         2.061759	       1.091036
	 R(7,10)          =         2.865748	       1.516489
	 R(8,10)          =         2.062462	       1.091408
	 R(9,10)          =         2.061670	       1.090989
	 R(10,14)         =         2.866310	       1.516786
	 R(11,14)         =         2.055194	       1.087562
	 R(12,14)         =         2.057097	       1.088569
	 R(13,14)         =         2.057279	       1.088665
	 B(1,4,2)         =         1.879135	     107.666491
	 B(1,4,3)         =         1.874767	     107.416258
	 B(1,4,7)         =         1.926628	     110.387674
	 B(2,4,3)         =         1.892469	     108.430488
	 B(2,4,7)         =         1.938293	     111.055999
	 B(3,4,7)         =         1.949918	     111.722096
	 B(4,7,5)         =         1.913482	     109.634447
	 B(4,7,6)         =         1.918895	     109.944569
	 B(4,7,10)        =         1.965651	     112.623527
	 B(5,7,6)         =         1.857814	     106.444897
	 B(5,7,10)        =         1.896748	     108.675657
	 B(6,7,10)        =         1.908000	     109.320342
	 B(7,10,8)        =         1.905245	     109.162511
	 B(7,10,9)        =         1.899977	     108.860655
	 B(7,10,14)       =         1.965376	     112.607758
	 B(8,10,9)        =         1.858433	     106.480342
	 B(8,10,14)       =         1.915704	     109.761766
	 B(9,10,14)       =         1.915952	     109.775979
	 B(10,14,11)      =         1.949402	     111.692520
	 B(10,14,12)      =         1.932376	     110.717004
	 B(10,14,13)      =         1.931721	     110.679481
	 B(11,14,12)      =         1.884181	     107.955609
	 B(11,14,13)      =         1.884109	     107.951498
	 B(12,14,13)      =         1.879625	     107.694567
	 D(1,4,7,5)       =         1.228842	      70.407451
	 D(1,4,7,6)       =        -3.017670	    -172.899743
	 D(1,4,7,10)      =        -0.885294	     -50.723588
	 D(2,4,7,5)       =        -2.971455	    -170.251858
	 D(2,4,7,6)       =        -0.934782	     -53.559052
	 D(2,4,7,10)      =         1.197594	      68.617103
	 D(3,4,7,5)       =        -0.856095	     -49.050612
	 D(3,4,7,6)       =         1.180579	      67.642194
	 D(3,4,7,10)      =        -2.970230	    -170.181651
	 D(4,7,10,8)      =        -0.990243	     -56.736722
	 D(4,7,10,9)      =         1.031789	      59.117170
	 D(4,7,10,14)     =        -3.122525	    -178.907491
	 D(5,7,10,8)      =        -3.113899	    -178.413299
	 D(5,7,10,9)      =        -1.091868	     -62.559407
	 D(5,7,10,14)     =         1.037004	      59.415932
	 D(6,7,10,8)      =         1.148269	      65.790968
	 D(6,7,10,9)      =        -3.112884	    -178.355140
	 D(6,7,10,14)     =        -0.984013	     -56.379801
	 D(7,10,14,11)    =        -3.133704	    -179.548007
	 D(7,10,14,12)    =         1.049115	      60.109878
	 D(7,10,14,13)    =        -1.033875	     -59.236691
	 D(8,10,14,11)    =         1.023114	      58.620099
	 D(8,10,14,12)    =        -1.077252	     -61.722016
	 D(8,10,14,13)    =         3.122942	     178.931415
	 D(9,10,14,11)    =        -1.013895	     -58.091890
	 D(9,10,14,12)    =        -3.114261	    -178.434005
	 D(9,10,14,13)    =         1.085934	      62.219426

	Current energy   :      -158.1607590891

	Energy change for the previous step:
		Projected    :         0.0000182562
		Actual       :        -0.0000063033

	Performing BFGS update.
	Previous computed or guess Hessian on step 1.
	Steps to be used in Hessian update: 4 3
	Adding user-defined constraint: Fragment 1; Coordinate 46:
		Value =    -2.970230; Fixed value    =    -2.967060
		Force =     0.001902; Force constant =     0.600000
	Removing off-diagonal coupling between coordinate 46 and others.
	Taking RFO optimization step.
	Going to follow RFO solution 1.
	Using RFO vector 1.
	Norm of target step-size    0.00324
	Projected energy change by RFO approximation:        -0.0000003340

	Back-transformation to cartesian coordinates...
	Successfully converged to displaced geometry.

	--- Internal Coordinate Step in ANG or DEG, aJ/ANG or AJ/DEG ---
	 ---------------------------------------------------------------------------
	   Coordinate                Previous        Force       Change         New 
	   ----------                --------       ------       ------       ------
	    1 R(1,4)          =      1.089071    -0.000209    -0.000044     1.089026
	    2 R(2,4)          =      1.088020    -0.000492    -0.000097     1.087923
	    3 R(3,4)          =      1.087503    -0.000435    -0.000085     1.087418
	    4 R(4,7)          =      1.517632     0.000551     0.000135     1.517767
	    5 R(5,7)          =      1.091211     0.000037     0.000000     1.091211
	    6 R(6,7)          =      1.091036    -0.000345    -0.000070     1.090966
	    7 R(7,10)         =      1.516489     0.000427     0.000100     1.516588
	    8 R(8,10)         =      1.091408    -0.000293    -0.000060     1.091349
	    9 R(9,10)         =      1.090989    -0.000019    -0.000012     1.090977
	   10 R(10,14)        =      1.516786     0.000476     0.000119     1.516905
	   11 R(11,14)        =      1.087562    -0.000400    -0.000079     1.087483
	   12 R(12,14)        =      1.088569    -0.000440    -0.000087     1.088482
	   13 R(13,14)        =      1.088665    -0.000418    -0.000083     1.088582
	   14 B(1,4,2)        =    107.666491     0.000001     0.000374   107.666865
	   15 B(1,4,3)        =    107.416258    -0.000001    -0.007113   107.409145
	   16 B(1,4,7)        =    110.387674    -0.000003    -0.018950   110.368724
	   17 B(2,4,3)        =    108.430488     0.000001     0.013607   108.444095
	   18 B(2,4,7)        =    111.055999     0.000001     0.005049   111.061048
	   19 B(3,4,7)        =    111.722096     0.000001     0.006902   111.728998
	   20 B(4,7,5)        =    109.634447    -0.000000    -0.007420   109.627027
	   21 B(4,7,6)        =    109.944569    -0.000001     0.007002   109.951571
	   22 B(4,7,10)       =    112.623527     0.000002     0.010720   112.634246
	   23 B(5,7,6)        =    106.444897    -0.000000    -0.012284   106.432613
	   24 B(5,7,10)       =    108.675657    -0.000002    -0.017146   108.658511
	   25 B(6,7,10)       =    109.320342     0.000001     0.017569   109.337911
	   26 B(7,10,8)       =    109.162511    -0.000001     0.001602   109.164113
	   27 B(7,10,9)       =    108.860655    -0.000001    -0.001441   108.859214
	   28 B(7,10,14)      =    112.607758     0.000004     0.015234   112.622992
	   29 B(8,10,9)       =    106.480342    -0.000000    -0.011947   106.468394
	   30 B(8,10,14)      =    109.761766    -0.000001    -0.003526   109.758240
	   31 B(9,10,14)      =    109.775979    -0.000001    -0.001427   109.774552
	   32 B(10,14,11)     =    111.692520     0.000001     0.004382   111.696902
	   33 B(10,14,12)     =    110.717004    -0.000001    -0.004535   110.712470
	   34 B(10,14,13)     =    110.679481    -0.000002    -0.009156   110.670325
	   35 B(11,14,12)     =    107.955609     0.000000     0.003873   107.959482
	   36 B(11,14,13)     =    107.951498     0.000000     0.002822   107.954321
	   37 B(12,14,13)     =    107.694567     0.000001     0.003052   107.697619
	   38 D(1,4,7,5)      =     70.407451    -0.000000    -0.032234    70.375217
	   39 D(1,4,7,6)      =   -172.899743    -0.000000    -0.047400  -172.947143
	   40 D(1,4,7,10)     =    -50.723588     0.000000    -0.012361   -50.735949
	   41 D(2,4,7,5)      =   -170.251858    -0.000000    -0.040849  -170.292707
	   42 D(2,4,7,6)      =    -53.559052    -0.000000    -0.056015   -53.615067
	   43 D(2,4,7,10)     =     68.617103     0.000000    -0.020976    68.596127
	   44 D(3,4,7,5)      =    -49.050612     0.000000    -0.015135   -49.065747
	   45 D(3,4,7,6)      =     67.642194     0.000000    -0.030301    67.611893
	   46 D(3,4,7,10)     =   -170.181651     0.000001     0.004738  -170.176913
	   47 D(4,7,10,8)     =    -56.736722    -0.000000     0.030894   -56.705827
	   48 D(4,7,10,9)     =     59.117170    -0.000000     0.016736    59.133906
	   49 D(4,7,10,14)    =   -178.907491    -0.000000     0.024005  -178.883485
	   50 D(5,7,10,8)     =   -178.413299     0.000000     0.045244  -178.368055
	   51 D(5,7,10,9)     =    -62.559407    -0.000000     0.031085   -62.528322
	   52 D(5,7,10,14)    =     59.415932     0.000000     0.038355    59.454287
	   53 D(6,7,10,8)     =     65.790968     0.000000     0.059790    65.850758
	   54 D(6,7,10,9)     =   -178.355140     0.000000     0.045631  -178.309508
	   55 D(6,7,10,14)    =    -56.379801     0.000000     0.052901   -56.326900
	   56 D(7,10,14,11)   =   -179.548007     0.000000     0.028492  -179.519515
	   57 D(7,10,14,12)   =     60.109878    -0.000000     0.023733    60.133612
	   58 D(7,10,14,13)   =    -59.236691     0.000000     0.028764   -59.207927
	   59 D(8,10,14,11)   =     58.620099    -0.000000     0.018575    58.638674
	   60 D(8,10,14,12)   =    -61.722016    -0.000000     0.013817   -61.708200
	   61 D(8,10,14,13)   =    178.931415    -0.000000     0.018848   178.950262
	   62 D(9,10,14,11)   =    -58.091890     0.000000     0.035944   -58.055945
	   63 D(9,10,14,12)   =   -178.434005     0.000000     0.031186  -178.402819
	   64 D(9,10,14,13)   =     62.219426     0.000000     0.036217    62.255643
	 ---------------------------------------------------------------------------
	Successfully symmetrized geometry.
	 Forces used to impose fixed constraints are not included.
	  Forces zeroed: 46 

  ==> Convergence Check <==

  Measures of convergence in internal coordinates in au.
  Criteria marked as inactive (o), active & met (*), and active & unmet ( ).
  ---------------------------------------------------------------------------------------------
   Step     Total Energy     Delta E     MAX Force     RMS Force      MAX Disp      RMS Disp   
  ---------------------------------------------------------------------------------------------
    Convergence Criteria    1.00e-06 *    3.00e-04 *             o    1.20e-03 *             o
  ---------------------------------------------------------------------------------------------
      5    -158.16075909   -6.30e-06      6.69e-05 *    2.52e-05 o    1.04e-03 *    4.05e-04 o  ~
  ---------------------------------------------------------------------------------------------


  **** Optimization is complete! (in 5 steps) ****

  ==> Optimization Summary <==

  Measures of convergence in internal coordinates in au.
  --------------------------------------------------------------------------------------------------------------- ~
   Step         Total Energy             Delta E       MAX Force       RMS Force        MAX Disp        RMS Disp  ~
  --------------------------------------------------------------------------------------------------------------- ~
      1    -158.156543408391   -158.156543408391      0.01316141      0.00559539      0.02521117      0.01250520  ~
      2    -158.159569078527     -0.003025670136      0.00478541      0.00224053      0.02961671      0.01252249  ~
      3    -158.160559310381     -0.000990231855      0.00151475      0.00059004      0.04600406      0.01251739  ~
      4    -158.160752785769     -0.000193475388      0.00053353      0.00014832      0.00964632      0.00302317  ~
      5    -158.160759089101     -0.000006303332      0.00006691      0.00002593      0.00104353      0.00040537  ~
  --------------------------------------------------------------------------------------------------------------- ~

	Writing optimization data to binary file.
	Final energy is   -158.1607590891011
	Final (previous) structure:
	Cartesian Geometry (in Angstrom)
	    H    -1.9310616550   0.1711118331  -1.2916446144
	    H    -2.3719190822   0.1911939007   0.4096195368
	    H    -2.1601356590   1.7052479147  -0.4720842324
	    C    -1.7769254762   0.6949275065  -0.3493421268
	    H     0.2446150039   1.3471741555  -0.6572801797
	    H    -0.1735997974   1.1070146490   1.0227774993
	    C    -0.3053622070   0.6935753401   0.0217452767
	    H    -0.2530517152  -1.3594585337   0.6215778934
	    H     0.1991048237  -1.0860399768  -1.0450963786
	    C     0.3089851003  -0.6917880119  -0.0337863722
	    H     2.2003842976  -1.6954092271   0.3100900042
	    H     1.8975487323  -0.3315997902   1.3806151242
	    H     2.3513899697  -0.0492309930  -0.2941585049
	    C     1.7730275375  -0.6967151649   0.3626920386
	Saving final (previous) structure.
			--------------------------
			 OPTKING Finished Execution 
			--------------------------

    Final optimized geometry and variables:
    Molecular point group: c1
    Full point group: C1

    Geometry (in Angstrom), charge = 0, multiplicity = 1:

    H           -1.931061654951     0.171111833141    -1.291644614352
    H           -2.371919082248     0.191193900658     0.409619536789
    H           -2.160135658972     1.705247914678    -0.472084232375
    C           -1.776925476201     0.694927506521    -0.349342126780
    H            0.244615003949     1.347174155541    -0.657280179653
    H           -0.173599797380     1.107014648955     1.022777499265
    C           -0.305362207011     0.693575340062     0.021745276693
    H           -0.253051715161    -1.359458533652     0.621577893382
    H            0.199104823743    -1.086039976820    -1.045096378585
    C            0.308985100333    -0.691788011893    -0.033786372189
    H            2.200384297604    -1.695409227102     0.310090004163
    H            1.897548732314    -0.331599790232     1.380615124199
    H            2.351389969690    -0.049230992958    -0.294158504892
    C            1.773027537468    -0.696715164939     0.362692038626

	Cleaning optimization helper files.

*** Psi4 exiting successfully. Buy a developer a beer!
