
    -----------------------------------------------------------------------
          Psi4: An Open-Source Ab Initio Electronic Structure Package
                               Psi4 1.1 release

                         Git: Rev {HEAD} add49b9 


    R. M. Parrish, L. A. Burns, D. G. A. Smith, A. C. Simmonett,
    A. E. DePrince III, E. G. Hohenstein, U. Bozkaya, A. Yu. Sokolov,
    R. Di Remigio, R. M. Richard, J. F. Gonthier, A. M. James,
    H. R. McAlexander, A. Kumar, M. Saitow, X. Wang, B. P. Pritchard,
    P. Verma, H. F. Schaefer III, K. Patkowski, R. A. King, E. F. Valeev,
    F. A. Evangelista, J. M. Turney, T. D. Crawford, and C. D. Sherrill,
    J. Chem. Theory Comput. in press (2017).
    (doi: 10.1021/acs.jctc.7b00174)

    -----------------------------------------------------------------------


    Psi4 started on: Wednesday, 14 June 2017 02:53PM

    Process ID:   5826
    PSIDATADIR: /cbio/jclab/home/chayas/anaconda/envs/py35/share/psi4
    Memory:     500.0 MiB
    Threads:    1
    
  ==> Input File <==

--------------------------------------------------------------------------

memory 1000 mb

molecule butane {
  symmetry C1
  0 1 
  H      1.604   0.760   -8.260
  H      1.745   2.388   -8.880
  H      2.043   1.024   -9.930
  C      2.142   1.395   -8.932
  H      4.169   2.051   -9.210
  H      3.731   1.788   -7.539
  C      3.631   1.416   -8.537
  H      3.665   -0.647   -7.940
  H      4.104   -0.384   -9.610
  C      4.203   -0.012   -8.612
  H      5.998   -0.975   -7.932
  H      5.834   0.680   -7.397
  H      6.277   0.337   -9.051
  C      5.691   0.009   -8.218
  units Angstrom
}

dih_string = "7 10 14 13 280"
set optking fixed_dihedral = $dih_string

optimize('MP2/aug-cc-pvtz')
--------------------------------------------------------------------------

  Memory set to 953.674 MiB by Python driver.
gradient() will perform analytic gradient computation.

*** tstart() called on gpu-1-7.local
*** at Wed Jun 14 14:53:30 2017

    SCF Algorithm Type (re)set to DF.

*** tstart() called on gpu-1-7.local
*** at Wed Jun 14 14:53:30 2017

   => Loading Basis Set <=

    Name: AUG-CC-PVTZ
    Role: ORBITAL
    Keyword: BASIS
    atoms 1-3, 5-6, 8-9, 11-13 entry H          line    34 file /cbio/jclab/home/chayas/anaconda/envs/py35/share/psi4/basis/aug-cc-pvtz.gbs 
    atoms 4, 7, 10, 14         entry C          line   221 file /cbio/jclab/home/chayas/anaconda/envs/py35/share/psi4/basis/aug-cc-pvtz.gbs 


         ---------------------------------------------------------
                                   SCF
            by Justin Turney, Rob Parrish, and Andy Simmonett
                              RHF Reference
                        1 Threads,    953 MiB Core
         ---------------------------------------------------------

  ==> Geometry <==

    Molecular point group: c1
    Full point group: C1

    Geometry (in Angstrom), charge = 0, multiplicity = 1:

       Center              X                  Y                   Z               Mass       
    ------------   -----------------  -----------------  -----------------  -----------------
           H         -2.312793382205     0.057965294236     0.314776029323     1.007825032070
           H         -2.171793382205     1.685965294236    -0.305223970677     1.007825032070
           H         -1.873793382205     0.321965294236    -1.355223970677     1.007825032070
           C         -1.774793382205     0.692965294236    -0.357223970677    12.000000000000
           H          0.252206617795     1.348965294236    -0.635223970677     1.007825032070
           H         -0.185793382205     1.085965294236     1.035776029323     1.007825032070
           C         -0.285793382205     0.713965294236     0.037776029323    12.000000000000
           H         -0.251793382205    -1.349034705764     0.634776029323     1.007825032070
           H          0.187206617795    -1.086034705764    -1.035223970677     1.007825032070
           C          0.286206617795    -0.714034705764    -0.037223970677    12.000000000000
           H          2.081206617795    -1.677034705764     0.642776029323     1.007825032070
           H          1.917206617795    -0.022034705764     1.177776029323     1.007825032070
           H          2.360206617795    -0.365034705764    -0.476223970677     1.007825032070
           C          1.774206617795    -0.693034705764     0.356776029323    12.000000000000

  Running in c1 symmetry.

  Rotational constants: A =      0.76949  B =      0.12464  C =      0.11638 [cm^-1]
  Rotational constants: A =  23068.75277  B =   3736.74246  C =   3488.91260 [MHz]
  Nuclear repulsion =  131.828015828949475

  Charge       = 0
  Multiplicity = 1
  Electrons    = 34
  Nalpha       = 17
  Nbeta        = 17

  ==> Algorithm <==

  SCF Algorithm Type is DF.
  DIIS enabled.
  MOM disabled.
  Fractional occupation disabled.
  Guess Type is SAD.
  Energy threshold   = 1.00e-10
  Density threshold  = 1.00e-10
  Integral threshold = 0.00e+00

  ==> Primary Basis <==

  Basis Set: AUG-CC-PVTZ
    Blend: AUG-CC-PVTZ
    Number of shells: 146
    Number of basis function: 414
    Number of Cartesian functions: 470
    Spherical Harmonics?: true
    Max angular momentum: 3

   => Loading Basis Set <=

    Name: (AUG-CC-PVTZ AUX)
    Role: JKFIT
    Keyword: DF_BASIS_SCF
    atoms 1-3, 5-6, 8-9, 11-13 entry H          line    69 file /cbio/jclab/home/chayas/anaconda/envs/py35/share/psi4/basis/aug-cc-pvtz-jkfit.gbs 
    atoms 4, 7, 10, 14         entry C          line   161 file /cbio/jclab/home/chayas/anaconda/envs/py35/share/psi4/basis/aug-cc-pvtz-jkfit.gbs 

  ==> Pre-Iterations <==

   -------------------------------------------------------
    Irrep   Nso     Nmo     Nalpha   Nbeta   Ndocc  Nsocc
   -------------------------------------------------------
     A        414     414       0       0       0       0
   -------------------------------------------------------
    Total     414     414      17      17      17       0
   -------------------------------------------------------

  ==> Integral Setup <==

  ==> DFJK: Density-Fitted J/K Matrices <==

    J tasked:                  Yes
    K tasked:                  Yes
    wK tasked:                  No
    OpenMP threads:              1
    Integrals threads:           1
    Memory (MB):               715
    Algorithm:                Core
    Integral Cache:           NONE
    Schwarz Cutoff:          1E-12
    Fitting Condition:       1E-12

   => Auxiliary Basis Set <=

  Basis Set: (AUG-CC-PVTZ AUX)
    Blend: AUG-CC-PVTZ-JKFIT
    Number of shells: 260
    Number of basis function: 876
    Number of Cartesian functions: 1074
    Spherical Harmonics?: true
    Max angular momentum: 4

  Minimum eigenvalue in the overlap matrix is 8.3450014530E-06.
  Using Symmetric Orthogonalization.

  SCF Guess: Superposition of Atomic Densities via on-the-fly atomic UHF.

  ==> Iterations <==

                           Total Energy        Delta E     RMS |[F,P]|

   @DF-RHF iter   0:  -158.77728117388872   -1.58777e+02   9.13449e-03 
   @DF-RHF iter   1:  -157.21276681623087    1.56451e+00   1.11578e-03 
   @DF-RHF iter   2:  -157.33057802993750   -1.17811e-01   4.30922e-04 DIIS
   @DF-RHF iter   3:  -157.34887981345523   -1.83018e-02   1.24743e-04 DIIS
   @DF-RHF iter   4:  -157.35132799332763   -2.44818e-03   2.19324e-05 DIIS
   @DF-RHF iter   5:  -157.35140843847742   -8.04451e-05   7.20278e-06 DIIS
   @DF-RHF iter   6:  -157.35141640472852   -7.96625e-06   1.38781e-06 DIIS
   @DF-RHF iter   7:  -157.35141681347386   -4.08745e-07   2.27851e-07 DIIS
   @DF-RHF iter   8:  -157.35141682597936   -1.25055e-08   3.86272e-08 DIIS
   @DF-RHF iter   9:  -157.35141682630444   -3.25088e-10   8.85326e-09 DIIS
   @DF-RHF iter  10:  -157.35141682632354   -1.90994e-11   1.82294e-09 DIIS
   @DF-RHF iter  11:  -157.35141682632286    6.82121e-13   5.04463e-10 DIIS
   @DF-RHF iter  12:  -157.35141682632326   -3.97904e-13   1.42439e-10 DIIS
   @DF-RHF iter  13:  -157.35141682632360   -3.41061e-13   2.81784e-11 DIIS

  ==> Post-Iterations <==

    Orbital Energies (a.u.)
    -----------------------

    Doubly Occupied:                                                      

       1A    -11.207142     2A    -11.206237     3A    -11.198657  
       4A    -11.198188     5A     -1.070696     6A     -0.981141  
       7A     -0.861522     8A     -0.795041     9A     -0.647312  
      10A     -0.587632    11A     -0.575679    12A     -0.570861  
      13A     -0.514071    14A     -0.503638    15A     -0.475318  
      16A     -0.468606    17A     -0.441406  

    Virtual:                                                              

      18A      0.032283    19A      0.037234    20A      0.039543  
      21A      0.040791    22A      0.057056    23A      0.058517  
      24A      0.059790    25A      0.061040    26A      0.081900  
      27A      0.083314    28A      0.098534    29A      0.112473  
      30A      0.123182    31A      0.130715    32A      0.136174  
      33A      0.142054    34A      0.143284    35A      0.146381  
      36A      0.148381    37A      0.159850    38A      0.161404  
      39A      0.167264    40A      0.170860    41A      0.202006  
      42A      0.209135    43A      0.210902    44A      0.229825  
      45A      0.247395    46A      0.249615    47A      0.252603  
      48A      0.269608    49A      0.276783    50A      0.282673  
      51A      0.284364    52A      0.315527    53A      0.318077  
      54A      0.330942    55A      0.337000    56A      0.342370  
      57A      0.351174    58A      0.357650    59A      0.358456  
      60A      0.362702    61A      0.373592    62A      0.374636  
      63A      0.383294    64A      0.386863    65A      0.389949  
      66A      0.391998    67A      0.396809    68A      0.402369  
      69A      0.407446    70A      0.413741    71A      0.422510  
      72A      0.429688    73A      0.443738    74A      0.448915  
      75A      0.455726    76A      0.462122    77A      0.464079  
      78A      0.465132    79A      0.474865    80A      0.481287  
      81A      0.487520    82A      0.493803    83A      0.501493  
      84A      0.504047    85A      0.509191    86A      0.513236  
      87A      0.520296    88A      0.533063    89A      0.533568  
      90A      0.537391    91A      0.545419    92A      0.560166  
      93A      0.567533    94A      0.572991    95A      0.586568  
      96A      0.591681    97A      0.602466    98A      0.611280  
      99A      0.621909   100A      0.631676   101A      0.638875  
     102A      0.660648   103A      0.681045   104A      0.686386  
     105A      0.700886   106A      0.712237   107A      0.762615  
     108A      0.779086   109A      0.797265   110A      0.814701  
     111A      0.822415   112A      0.827711   113A      0.836788  
     114A      0.844835   115A      0.849401   116A      0.860271  
     117A      0.864540   118A      0.867295   119A      0.886259  
     120A      0.892268   121A      0.897161   122A      0.902836  
     123A      0.906532   124A      0.922404   125A      0.926934  
     126A      0.931628   127A      0.937182   128A      0.943474  
     129A      0.944338   130A      0.960485   131A      0.967104  
     132A      0.971382   133A      0.978802   134A      0.986333  
     135A      0.993983   136A      1.015006   137A      1.019739  
     138A      1.035068   139A      1.048981   140A      1.065609  
     141A      1.071897   142A      1.081164   143A      1.093922  
     144A      1.110505   145A      1.114076   146A      1.123935  
     147A      1.130726   148A      1.133652   149A      1.141659  
     150A      1.159082   151A      1.164294   152A      1.166570  
     153A      1.176952   154A      1.193201   155A      1.202083  
     156A      1.219854   157A      1.224027   158A      1.232075  
     159A      1.246401   160A      1.256511   161A      1.260872  
     162A      1.265282   163A      1.273526   164A      1.279831  
     165A      1.296090   166A      1.304072   167A      1.321602  
     168A      1.327610   169A      1.342122   170A      1.352947  
     171A      1.360528   172A      1.388827   173A      1.401055  
     174A      1.423991   175A      1.432319   176A      1.441941  
     177A      1.462313   178A      1.482535   179A      1.499507  
     180A      1.508000   181A      1.522216   182A      1.526536  
     183A      1.551837   184A      1.559276   185A      1.563277  
     186A      1.586581   187A      1.593739   188A      1.616305  
     189A      1.632298   190A      1.645810   191A      1.649774  
     192A      1.652240   193A      1.677528   194A      1.692748  
     195A      1.695338   196A      1.702755   197A      1.711525  
     198A      1.721186   199A      1.733397   200A      1.743546  
     201A      1.745114   202A      1.759510   203A      1.766006  
     204A      1.777836   205A      1.782898   206A      1.795600  
     207A      1.797878   208A      1.809863   209A      1.822076  
     210A      1.846347   211A      1.864327   212A      1.872389  
     213A      1.890503   214A      1.904250   215A      1.916138  
     216A      1.927108   217A      1.961229   218A      1.975079  
     219A      1.986553   220A      1.993097   221A      2.001090  
     222A      2.009031   223A      2.033308   224A      2.043485  
     225A      2.049059   226A      2.066701   227A      2.092313  
     228A      2.102804   229A      2.124138   230A      2.145162  
     231A      2.162628   232A      2.193701   233A      2.196666  
     234A      2.207736   235A      2.243471   236A      2.256109  
     237A      2.264370   238A      2.281490   239A      2.301541  
     240A      2.310487   241A      2.333352   242A      2.336083  
     243A      2.348693   244A      2.359204   245A      2.372328  
     246A      2.375710   247A      2.424900   248A      2.444780  
     249A      2.466695   250A      2.479773   251A      2.506846  
     252A      2.554138   253A      2.603225   254A      2.622242  
     255A      2.640307   256A      2.663366   257A      2.716282  
     258A      2.889131   259A      2.924110   260A      3.009636  
     261A      3.235159   262A      3.249296   263A      3.303172  
     264A      3.372072   265A      3.389484   266A      3.421112  
     267A      3.451039   268A      3.454907   269A      3.471351  
     270A      3.485476   271A      3.524892   272A      3.542759  
     273A      3.571912   274A      3.572909   275A      3.597013  
     276A      3.609395   277A      3.629628   278A      3.664828  
     279A      3.685430   280A      3.694801   281A      3.714724  
     282A      3.719548   283A      3.736900   284A      3.743684  
     285A      3.757179   286A      3.769925   287A      3.779439  
     288A      3.799609   289A      3.810581   290A      3.823907  
     291A      3.846362   292A      3.858616   293A      3.877205  
     294A      3.889108   295A      3.915711   296A      3.928417  
     297A      3.940063   298A      3.950126   299A      3.976887  
     300A      3.996910   301A      4.008347   302A      4.016946  
     303A      4.022855   304A      4.025118   305A      4.049267  
     306A      4.058565   307A      4.071748   308A      4.084857  
     309A      4.124671   310A      4.183033   311A      4.198617  
     312A      4.212307   313A      4.231223   314A      4.240348  
     315A      4.251710   316A      4.277096   317A      4.280448  
     318A      4.290111   319A      4.309827   320A      4.333361  
     321A      4.339212   322A      4.373143   323A      4.382032  
     324A      4.411199   325A      4.427099   326A      4.443188  
     327A      4.526904   328A      4.551792   329A      4.577354  
     330A      4.590338   331A      4.632249   332A      4.666287  
     333A      4.687167   334A      4.698923   335A      4.718702  
     336A      4.736040   337A      4.745984   338A      4.751304  
     339A      4.773434   340A      4.795654   341A      4.808165  
     342A      4.861559   343A      4.869297   344A      4.884171  
     345A      4.890082   346A      4.916450   347A      4.942312  
     348A      4.955313   349A      4.974561   350A      5.006659  
     351A      5.043325   352A      5.069548   353A      5.084042  
     354A      5.094495   355A      5.131540   356A      5.171411  
     357A      5.181142   358A      5.200470   359A      5.207494  
     360A      5.238445   361A      5.254699   362A      5.270638  
     363A      5.276584   364A      5.310515   365A      5.319129  
     366A      5.339997   367A      5.391632   368A      5.413977  
     369A      5.438809   370A      5.449912   371A      5.458727  
     372A      5.468287   373A      5.498727   374A      5.519543  
     375A      5.584350   376A      5.602628   377A      5.625371  
     378A      5.643899   379A      5.680356   380A      5.683545  
     381A      5.698843   382A      5.758187   383A      5.777366  
     384A      5.791022   385A      5.820735   386A      5.861784  
     387A      5.907716   388A      5.918999   389A      5.958110  
     390A      6.025191   391A      6.120731   392A      6.157143  
     393A      6.175081   394A      6.191281   395A      6.245230  
     396A      6.264717   397A      6.271461   398A      6.315585  
     399A      6.318486   400A      6.357755   401A      6.407655  
     402A      6.437519   403A      6.556884   404A      6.570403  
     405A      6.747978   406A      6.784313   407A      6.830462  
     408A      6.849886   409A      6.857544   410A      6.984174  
     411A     18.068920   412A     18.381557   413A     18.671581  
     414A     18.953654  

    Final Occupation by Irrep:
              A 
    DOCC [    17 ]

  Energy converged.

  @DF-RHF Final Energy:  -157.35141682632360

   => Energetics <=

    Nuclear Repulsion Energy =            131.8280158289494750
    One-Electron Energy =                -471.7525755866953432
    Two-Electron Energy =                 182.5731429314222964
    DFT Exchange-Correlation Energy =       0.0000000000000000
    Empirical Dispersion Energy =           0.0000000000000000
    PCM Polarization Energy =               0.0000000000000000
    EFP Energy =                            0.0000000000000000
    Total Energy =                       -157.3514168263236002



Properties will be evaluated at   0.000000,   0.000000,   0.000000 Bohr

Properties computed using the SCF density matrix

  Nuclear Dipole Moment: (a.u.)
     X:     0.0019      Y:     0.0015      Z:    -0.0012

  Electronic Dipole Moment: (a.u.)
     X:    -0.0016      Y:    -0.0020      Z:    -0.0006

  Dipole Moment: (a.u.)
     X:     0.0004      Y:    -0.0004      Z:    -0.0017     Total:     0.0018

  Dipole Moment: (Debye)
     X:     0.0009      Y:    -0.0011      Z:    -0.0044     Total:     0.0046


*** tstop() called on gpu-1-7.local at Wed Jun 14 14:55:09 2017
Module time:
	user time   =      97.73 seconds =       1.63 minutes
	system time =       0.65 seconds =       0.01 minutes
	total time  =         99 seconds =       1.65 minutes
Total time:
	user time   =      97.74 seconds =       1.63 minutes
	system time =       0.65 seconds =       0.01 minutes
	total time  =         99 seconds =       1.65 minutes

  //>>>>>>>>>>>>>>>>>>>>>>>>>>>>>>>>>>>//
  //               DFMP2               //
  //<<<<<<<<<<<<<<<<<<<<<<<<<<<<<<<<<<<//

   => Loading Basis Set <=

    Name: (AUG-CC-PVTZ AUX)
    Role: RIFIT
    Keyword: DF_BASIS_MP2
    atoms 1-3, 5-6, 8-9, 11-13 entry H          line    29 file /cbio/jclab/home/chayas/anaconda/envs/py35/share/psi4/basis/aug-cc-pvtz-ri.gbs 
    atoms 4, 7, 10, 14         entry C          line   147 file /cbio/jclab/home/chayas/anaconda/envs/py35/share/psi4/basis/aug-cc-pvtz-ri.gbs 

	 --------------------------------------------------------
	                          DF-MP2                         
	      2nd-Order Density-Fitted Moller-Plesset Theory     
	              RMP2 Wavefunction,   1 Threads             
	                                                         
	        Rob Parrish, Justin Turney, Andy Simmonett,      
	           Ed Hohenstein, and C. David Sherrill          
	 --------------------------------------------------------

   => Auxiliary Basis Set <=

  Basis Set: (AUG-CC-PVTZ AUX)
    Blend: AUG-CC-PVTZ-RI
    Number of shells: 252
    Number of basis function: 884
    Number of Cartesian functions: 1094
    Spherical Harmonics?: true
    Max angular momentum: 4

	 --------------------------------------------------------
	                 NBF =   414, NAUX =   884
	 --------------------------------------------------------
	   CLASS    FOCC     OCC    AOCC    AVIR     VIR    FVIR
	   PAIRS       0      17      17     397     397       0
	 --------------------------------------------------------


         ------------------------------------------------------------
                                     CPHF                           
                                  Rob Parrish                       
         ------------------------------------------------------------

  ==> Geometry <==

    Molecular point group: c1
    Full point group: C1

    Geometry (in Angstrom), charge = 0, multiplicity = 1:

       Center              X                  Y                   Z               Mass       
    ------------   -----------------  -----------------  -----------------  -----------------
           H         -2.312793382205     0.057965294236     0.314776029323     1.007825032070
           H         -2.171793382205     1.685965294236    -0.305223970677     1.007825032070
           H         -1.873793382205     0.321965294236    -1.355223970677     1.007825032070
           C         -1.774793382205     0.692965294236    -0.357223970677    12.000000000000
           H          0.252206617795     1.348965294236    -0.635223970677     1.007825032070
           H         -0.185793382205     1.085965294236     1.035776029323     1.007825032070
           C         -0.285793382205     0.713965294236     0.037776029323    12.000000000000
           H         -0.251793382205    -1.349034705764     0.634776029323     1.007825032070
           H          0.187206617795    -1.086034705764    -1.035223970677     1.007825032070
           C          0.286206617795    -0.714034705764    -0.037223970677    12.000000000000
           H          2.081206617795    -1.677034705764     0.642776029323     1.007825032070
           H          1.917206617795    -0.022034705764     1.177776029323     1.007825032070
           H          2.360206617795    -0.365034705764    -0.476223970677     1.007825032070
           C          1.774206617795    -0.693034705764     0.356776029323    12.000000000000

  Nuclear repulsion =  131.828015828949475
  Reference energy  = -157.351416826323600

  ==> Basis Set <==

  Basis Set: AUG-CC-PVTZ
    Blend: AUG-CC-PVTZ
    Number of shells: 146
    Number of basis function: 414
    Number of Cartesian functions: 470
    Spherical Harmonics?: true
    Max angular momentum: 3

  ==> CGRSolver (by Rob Parrish) <==

   Number of roots    =         1
   Preconditioning    =    JACOBI
   Convergence cutoff =     1E-06
   Maximum iterations =       100

  ==> CPHFRHamiltonian (by Rob Parrish) <== 

  ==> DFJK: Density-Fitted J/K Matrices <==

    J tasked:                  Yes
    K tasked:                  Yes
    wK tasked:                  No
    OpenMP threads:              1
    Integrals threads:           1
    Memory (MB):               715
    Algorithm:                Core
    Integral Cache:           NONE
    Schwarz Cutoff:          1E-12
    Fitting Condition:       1E-12

   => Auxiliary Basis Set <=

  Basis Set: (AUG-CC-PVTZ AUX)
    Blend: AUG-CC-PVTZ-JKFIT
    Number of shells: 260
    Number of basis function: 876
    Number of Cartesian functions: 1074
    Spherical Harmonics?: true
    Max angular momentum: 4

  ==> CPHF Iterations <==

  => Iterations <=

             Iter  Converged  Remaining    Residual
  CGR           1          0          1   8.159E-02
  CGR           2          0          1   1.305E-02
  CGR           3          0          1   3.413E-03
  CGR           4          0          1   8.052E-04
  CGR           5          0          1   1.185E-04
  CGR           6          0          1   2.130E-05
  CGR           7          0          1   3.773E-06
  CGR           8          1          0   8.657E-07

    CGRSolver converged.

  ==> DFCorrGrad: Density-Fitted Correlated Gradients <==

    OpenMP threads:              1
    Integrals threads:           1
    Memory (MB):               715
    Schwarz Cutoff:          0E+00
    Fitting Condition:       1E-12

   => Auxiliary Basis Set <=

  Basis Set: (AUG-CC-PVTZ AUX)
    Blend: AUG-CC-PVTZ-JKFIT
    Number of shells: 260
    Number of basis function: 876
    Number of Cartesian functions: 1074
    Spherical Harmonics?: true
    Max angular momentum: 4

	-----------------------------------------------------------
	 ==================> DF-MP2 Energies <==================== 
	-----------------------------------------------------------
	 Reference Energy          =    -157.3514168263236002 [Eh]
	 Singles Energy            =      -0.0000000000000000 [Eh]
	 Same-Spin Energy          =      -0.1654002831265979 [Eh]
	 Opposite-Spin Energy      =      -0.6388829342938299 [Eh]
	 Correlation Energy        =      -0.8042832174204277 [Eh]
	 Total Energy              =    -158.1557000437440195 [Eh]
	-----------------------------------------------------------
	 ================> DF-SCS-MP2 Energies <================== 
	-----------------------------------------------------------
	 SCS Same-Spin Scale       =       0.3333333333333333 [-]
	 SCS Opposite-Spin Scale   =       1.2000000000000000 [-]
	 SCS Same-Spin Energy      =      -0.0551334277088660 [Eh]
	 SCS Opposite-Spin Energy  =      -0.7666595211525958 [Eh]
	 SCS Correlation Energy    =      -0.8217929488614618 [Eh]
	 SCS Total Energy          =    -158.1732097751850574 [Eh]
	-----------------------------------------------------------


  -Total Gradient:
     Atom            X                  Y                   Z
    ------   -----------------  -----------------  -----------------
       1        0.007820159087     0.006795717012    -0.006376126965
       2        0.008175000232    -0.009376241222     0.000621272521
       3        0.003354750783     0.004148259487     0.011227081796
       4       -0.025252112443    -0.007148166134    -0.007739084641
       5       -0.007933906476    -0.008477235622     0.006042721202
       6       -0.003165331480    -0.005223516865    -0.011412657419
       7        0.022249431219     0.030933734956     0.012408448254
       8        0.008385929546     0.007660247932    -0.006529795237
       9        0.003828520031     0.006205528155     0.011034221563
      10       -0.020075063559    -0.030959337431    -0.011100778351
      11       -0.008070769617     0.009826034100    -0.003026263356
      12       -0.003769545328    -0.006171179809    -0.009597662524
      13       -0.008565762829    -0.004254221929     0.007084753982
      14        0.023018700829     0.006040377368     0.007363869171


*** tstop() called on gpu-1-7.local at Wed Jun 14 15:01:26 2017
Module time:
	user time   =     472.22 seconds =       7.87 minutes
	system time =       3.51 seconds =       0.06 minutes
	total time  =        476 seconds =       7.93 minutes
Total time:
	user time   =     472.23 seconds =       7.87 minutes
	system time =       3.51 seconds =       0.06 minutes
	total time  =        476 seconds =       7.93 minutes

			-----------------------------------------
			 OPTKING 2.0: for geometry optimizations 
			  - R.A. King,  Bethel University        
			-----------------------------------------

	Internal coordinates to be generated automatically.
	Detected frag 1 with atoms:  1 2 3 4 5 6 7 8 9 10 11 12 13 14
	---Fragment 1 Bond Connectivity---
	 1 : 4
	 2 : 4
	 3 : 4
	 4 : 1 2 3 7
	 5 : 7
	 6 : 7
	 7 : 4 5 6 10
	 8 : 10
	 9 : 10
	 10 : 7 8 9 14
	 11 : 14
	 12 : 14
	 13 : 14
	 14 : 10 11 12 13

	Assuming in current code that numbering for constraints corresponds to unified fragment.
	Fixed dihedral atom list: 
	     7    10    14    13
	---Fragment 1 Geometry and Gradient---
	 H          -4.3705460943        0.1095385313        0.5948404886
	 H          -4.1040947096        3.1860126757       -0.5767897138
	 H          -3.5409563220        0.6084262304       -2.5610021533
	 C          -3.3538734348        1.3095146257       -0.6750554727
	 H           0.4766014365        2.5491749689       -1.2003993376
	 H          -0.3510986097        2.0521769959        1.9573330304
	 C          -0.5400712230        1.3491988745        0.0713863498
	 H          -0.4758205344       -2.5493061377        1.1995528511
	 H           0.3537692379       -2.0523081647       -1.9562897908
	 C           0.5408521251       -1.3493300433       -0.0703431102
	 H           3.9329105336       -3.1691363092        1.2146706602
	 H           3.6229954478       -0.0416395593        2.2256741413
	 H           4.4601441247       -0.6898156229       -0.8999328825
	 C           3.3527646108       -1.3096457945        0.6742089862
	             0.0078201591        0.0067957170       -0.0063761270
	             0.0081750002       -0.0093762412        0.0006212725
	             0.0033547508        0.0041482595        0.0112270818
	            -0.0252521124       -0.0071481661       -0.0077390846
	            -0.0079339065       -0.0084772356        0.0060427212
	            -0.0031653315       -0.0052235169       -0.0114126574
	             0.0222494312        0.0309337350        0.0124084483
	             0.0083859295        0.0076602479       -0.0065297952
	             0.0038285200        0.0062055282        0.0110342216
	            -0.0200750636       -0.0309593374       -0.0111007784
	            -0.0080707696        0.0098260341       -0.0030262634
	            -0.0037695453       -0.0061711798       -0.0095976625
	            -0.0085657628       -0.0042542219        0.0070847540
	             0.0230187008        0.0060403774        0.0073638692

	Previous optimization step data not found.  Starting new optimization.

	---Fragment 1 Intrafragment Coordinates---
	 - Coordinate -           - BOHR/RAD -       - ANG/DEG -
	 R(1,4)           =         2.021436	       1.069698
	 R(2,4)           =         2.023298	       1.070683
	 R(3,4)           =         2.020723	       1.069320
	 R(4,7)           =         2.911397	       1.540645
	 R(5,7)           =         2.022623	       1.070326
	 R(6,7)           =         2.021555	       1.069761
	 R(7,10)          =         2.910419	       1.540128
	 R(8,10)          =         2.021436	       1.069698
	 R(9,10)          =         2.021379	       1.069668
	 R(10,14)         =         2.909087	       1.539422
	 R(11,14)         =         2.021478	       1.069720
	 R(12,14)         =         2.021858	       1.069921
	 R(13,14)         =         2.021980	       1.069986
	 B(1,4,2)         =         1.910870	     109.484805
	 B(1,4,3)         =         1.911121	     109.499161
	 B(1,4,7)         =         1.910399	     109.457783
	 B(2,4,3)         =         1.910042	     109.437340
	 B(2,4,7)         =         1.910564	     109.467262
	 B(3,4,7)         =         1.910803	     109.480971
	 B(4,7,5)         =         1.909937	     109.431343
	 B(4,7,6)         =         1.911630	     109.528316
	 B(4,7,10)        =         1.911154	     109.501062
	 B(5,7,6)         =         1.910605	     109.469614
	 B(5,7,10)        =         1.910047	     109.437654
	 B(6,7,10)        =         1.910425	     109.459295
	 B(7,10,8)        =         1.910303	     109.452301
	 B(7,10,9)        =         1.910824	     109.482155
	 B(7,10,14)       =         1.911213	     109.504437
	 B(8,10,9)        =         1.910417	     109.458846
	 B(8,10,14)       =         1.910766	     109.478806
	 B(9,10,14)       =         1.910276	     109.450772
	 B(10,14,11)      =         1.910581	     109.468233
	 B(10,14,12)      =         1.911489	     109.520261
	 B(10,14,13)      =         1.911664	     109.530293
	 B(11,14,12)      =         1.910681	     109.473964
	 B(11,14,13)      =         1.910225	     109.447844
	 B(12,14,13)      =         1.909158	     109.386679
	 D(1,4,7,5)       =         3.140997	     179.965873
	 D(1,4,7,6)       =        -1.047644	     -60.025575
	 D(1,4,7,10)      =         1.047427	      60.013132
	 D(2,4,7,5)       =        -1.047689	     -60.028143
	 D(2,4,7,6)       =         1.046856	      59.980409
	 D(2,4,7,10)      =        -3.141259	    -179.980883
	 D(3,4,7,5)       =         1.046044	      59.933911
	 D(3,4,7,6)       =         3.140588	     179.942463
	 D(3,4,7,10)      =        -1.047526	     -60.018830
	 D(4,7,10,8)      =        -1.047368	     -60.009777
	 D(4,7,10,9)      =         1.046677	      59.970178
	 D(4,7,10,14)     =         3.141107	     179.972182
	 D(5,7,10,8)      =        -3.140871	    -179.958653
	 D(5,7,10,9)      =        -1.046826	     -59.978698
	 D(5,7,10,14)     =         1.047604	      60.023306
	 D(6,7,10,8)      =         1.048439	      60.071149
	 D(6,7,10,9)      =        -3.140701	    -179.948896
	 D(6,7,10,14)     =        -1.046271	     -59.946893
	 D(7,10,14,11)    =         2.792730	     160.011623
	 D(7,10,14,12)    =         0.697783	      39.980041
	 D(7,10,14,13)    =        -1.395961	     -79.982653
	 D(8,10,14,11)    =         0.698303	      40.009801
	 D(8,10,14,12)    =        -1.396644	     -80.021781
	 D(8,10,14,13)    =         2.792798	     160.015525
	 D(9,10,14,11)    =        -1.395690	     -79.967169
	 D(9,10,14,12)    =         2.792549	     160.001249
	 D(9,10,14,13)    =         0.698805	      40.038554

	Current energy   :      -158.1557000437

	Generating empirical Hessian (Schlegel '84) for each fragment.
	Adding user-defined constraint: Fragment 1; Coordinate 58:
		Value =    -1.395961; Fixed value    =    -1.396263
		Force =    -0.000151; Force constant =     0.500000
	Removing off-diagonal coupling between coordinate 58 and others.
	Taking RFO optimization step.
	Going to follow RFO solution 1.
	Using RFO vector 1.

	Determining step-restricting scale parameter for RS-RFO.
	Maximum step size allowed    0.10000

	 Iter      |step|        alpha        rfo_root  
	------------------------------------------------
	    0     0.19524       1.00000           1
	    1     0.15425       5.49897           1
	    2     0.12282      16.30520           1
	    3     0.10596      28.87103           1
	    4     0.10056      34.75434           1
	    5     0.10001      35.43196           1
	------------------------------------------------
	Norm of target step-size    0.10001
	Projected energy change by RFO approximation:        -0.0046140298

	Back-transformation to cartesian coordinates...
	Could not converge backtransformation.
	Using first guess instead.

	--- Internal Coordinate Step in ANG or DEG, aJ/ANG or AJ/DEG ---
	 ---------------------------------------------------------------------------
	   Coordinate                Previous        Force       Change         New 
	   ----------                --------       ------       ------       ------
	    1 R(1,4)          =      1.069698     0.098641     0.012083     1.081781
	    2 R(2,4)          =      1.070683     0.096368     0.011825     1.082508
	    3 R(3,4)          =      1.069320     0.100744     0.012327     1.081648
	    4 R(4,7)          =      1.540645    -0.052411    -0.007618     1.533027
	    5 R(5,7)          =      1.070326     0.105595     0.012905     1.083231
	    6 R(6,7)          =      1.069761     0.105121     0.012828     1.082589
	    7 R(7,10)         =      1.540128    -0.074869    -0.010774     1.529353
	    8 R(8,10)         =      1.069698     0.106008     0.012938     1.082636
	    9 R(9,10)         =      1.069668     0.105516     0.012878     1.082546
	   10 R(10,14)        =      1.539422    -0.025265    -0.003617     1.535805
	   11 R(11,14)        =      1.069720     0.100216     0.012272     1.081992
	   12 R(12,14)        =      1.069921     0.096713     0.011914     1.081835
	   13 R(13,14)        =      1.069986     0.094835     0.011624     1.081609
	   14 B(1,4,2)        =    109.484805    -0.000247    -0.571442   108.913362
	   15 B(1,4,3)        =    109.499161    -0.000172    -0.455897   109.043264
	   16 B(1,4,7)        =    109.457783     0.000121     0.271750   109.729533
	   17 B(2,4,3)        =    109.437340    -0.000247    -0.568002   108.869338
	   18 B(2,4,7)        =    109.467262     0.000412     1.006426   110.473688
	   19 B(3,4,7)        =    109.480971     0.000133     0.301801   109.782773
	   20 B(4,7,5)        =    109.431343    -0.000127    -0.161778   109.269565
	   21 B(4,7,6)        =    109.528316    -0.000115    -0.137735   109.390582
	   22 B(4,7,10)       =    109.501062     0.000648     1.393737   110.894800
	   23 B(5,7,6)        =    109.469614     0.000013    -0.223009   109.246604
	   24 B(5,7,10)       =    109.437654    -0.000194    -0.392245   109.045409
	   25 B(6,7,10)       =    109.459295    -0.000225    -0.489040   108.970255
	   26 B(7,10,8)       =    109.452301    -0.000227    -0.520539   108.931761
	   27 B(7,10,9)       =    109.482155    -0.000231    -0.470777   109.011378
	   28 B(7,10,14)      =    109.504437     0.000673     1.450152   110.954589
	   29 B(8,10,9)       =    109.458846     0.000007    -0.256823   109.202023
	   30 B(8,10,14)      =    109.478806    -0.000102    -0.080813   109.397993
	   31 B(9,10,14)      =    109.450772    -0.000120    -0.133260   109.317513
	   32 B(10,14,11)     =    109.468233     0.000428     1.013045   110.481278
	   33 B(10,14,12)     =    109.520261     0.000141     0.348540   109.868800
	   34 B(10,14,13)     =    109.530293     0.000190     0.442892   109.973185
	   35 B(11,14,12)     =    109.473964    -0.000268    -0.628437   108.845527
	   36 B(11,14,13)     =    109.447844    -0.000306    -0.765837   108.682006
	   37 B(12,14,13)     =    109.386679    -0.000187    -0.432252   108.954427
	   38 D(1,4,7,5)      =    179.965873     0.000010     0.142269   180.108142
	   39 D(1,4,7,6)      =    -60.025575    -0.000020    -0.312181   -60.337756
	   40 D(1,4,7,10)     =     60.013132    -0.000008    -0.135482    59.877650
	   41 D(2,4,7,5)      =    -60.028143     0.000016     0.233651   -59.794492
	   42 D(2,4,7,6)      =     59.980409    -0.000015    -0.220799    59.759610
	   43 D(2,4,7,10)     =   -179.980883    -0.000003    -0.044100  -180.024983
	   44 D(3,4,7,5)      =     59.933911     0.000023     0.348417    60.282328
	   45 D(3,4,7,6)      =    179.942463    -0.000008    -0.106033   179.836430
	   46 D(3,4,7,10)     =    -60.018830     0.000004     0.070666   -59.948164
	   47 D(4,7,10,8)     =    -60.009777     0.000030     0.420695   -59.589082
	   48 D(4,7,10,9)     =     59.970178    -0.000032    -0.484615    59.485563
	   49 D(4,7,10,14)    =    179.972182    -0.000004    -0.048080   179.924102
	   50 D(5,7,10,8)     =   -179.958653     0.000002     0.005801  -179.952852
	   51 D(5,7,10,9)     =    -59.978698    -0.000060    -0.899510   -60.878208
	   52 D(5,7,10,14)    =     60.023306    -0.000032    -0.462974    59.560332
	   53 D(6,7,10,8)     =     60.071149     0.000057     0.804985    60.876134
	   54 D(6,7,10,9)     =   -179.948896    -0.000005    -0.100325  -180.049221
	   55 D(6,7,10,14)    =    -59.946893     0.000023     0.336211   -59.610682
	   56 D(7,10,14,11)   =    160.011623     0.000011     0.165889   160.177512
	   57 D(7,10,14,12)   =     39.980041     0.000006     0.090293    40.070334
	   58 D(7,10,14,13)   =    -79.982653     0.000012     0.131183   -79.851470
	   59 D(8,10,14,11)   =     40.009801    -0.000005    -0.042346    39.967455
	   60 D(8,10,14,12)   =    -80.021781    -0.000010    -0.117942   -80.139723
	   61 D(8,10,14,13)   =    160.015525    -0.000004    -0.077051   159.938473
	   62 D(9,10,14,11)   =    -79.967169     0.000024     0.401495   -79.565675
	   63 D(9,10,14,12)   =    160.001249     0.000019     0.325899   160.327148
	   64 D(9,10,14,13)   =     40.038554     0.000025     0.366790    40.405344
	 ---------------------------------------------------------------------------
	Successfully symmetrized geometry.
	 Forces used to impose fixed constraints are not included.
	  Forces zeroed: 58 

  ==> Convergence Check <==

  Measures of convergence in internal coordinates in au.
  Criteria marked as inactive (o), active & met (*), and active & unmet ( ).
  --------------------------------------------------------------------------------------------- ~
   Step     Total Energy     Delta E     MAX Force     RMS Force      MAX Disp      RMS Disp    ~
  --------------------------------------------------------------------------------------------- ~
    Convergence Criteria    1.00e-06 *    3.00e-04 *             o    1.20e-03 *             o  ~
  --------------------------------------------------------------------------------------------- ~
      1    -158.15570004   -1.58e+02      1.29e-02      5.61e-03 o    2.53e-02      1.25e-02 o  ~
  ---------------------------------------------------------------------------------------------

	Writing optimization data to binary file.
	Structure for next step:
	Cartesian Geometry (in Angstrom)
	    H    -2.3305806121   0.0587235204   0.3171793395
	    H    -2.1874846903   1.6989142283  -0.3077408366
	    H    -1.8877817158   0.3251833271  -1.3670735350
	    C    -1.7776687562   0.6982292102  -0.3577799214
	    H     0.2504513924   1.3492157788  -0.6451167206
	    H    -0.1924062135   1.0825264586   1.0434516537
	    C    -0.2955302201   0.7055703725   0.0338636422
	    H    -0.2541757178  -1.3461351320   0.6455769963
	    H     0.1897278337  -1.0822464060  -1.0421021357
	    C     0.2932910366  -0.7043032782  -0.0329742774
	    H     2.0986056133  -1.6910616703   0.6448403957
	    H     1.9374525111  -0.0252863669   1.1893610540
	    H     2.3793315831  -0.3695682365  -0.4799520232
	    C     1.7786606049  -0.6982476866   0.3573307790
			--------------------------
			 OPTKING Finished Execution 
			--------------------------

    Structure for next step:
    Molecular point group: c1
    Full point group: C1

    Geometry (in Angstrom), charge = 0, multiplicity = 1:

    H           -2.330377378323     0.058460926531     0.317115726599
    H           -2.187281456485     1.698651634399    -0.307804449490
    H           -1.887578481947     0.324920733216    -1.367137147859
    C           -1.777465522419     0.697966616351    -0.357843534325
    H            0.250654626196     1.348953184912    -0.645180333491
    H           -0.192202979732     1.082263864716     1.043388040794
    C           -0.295326986329     0.705307778594     0.033800029281
    H           -0.253972484030    -1.346397725919     0.645513383433
    H            0.189931067518    -1.082508999849    -1.042165748643
    C            0.293494270367    -0.704565872104    -0.033037890274
    H            2.098808847101    -1.691324264188     0.644776782750
    H            1.937655744938    -0.025548960807     1.189297441084
    H            2.379534816930    -0.369830830420    -0.480015636085
    C            1.778863838734    -0.698510280517     0.357267166103

gradient() will perform analytic gradient computation.

*** tstart() called on gpu-1-7.local
*** at Wed Jun 14 15:01:26 2017

    SCF Algorithm Type (re)set to DF.

*** tstart() called on gpu-1-7.local
*** at Wed Jun 14 15:01:26 2017

   => Loading Basis Set <=

    Name: AUG-CC-PVTZ
    Role: ORBITAL
    Keyword: BASIS
    atoms 1-3, 5-6, 8-9, 11-13 entry H          line    34 file /cbio/jclab/home/chayas/anaconda/envs/py35/share/psi4/basis/aug-cc-pvtz.gbs 
    atoms 4, 7, 10, 14         entry C          line   221 file /cbio/jclab/home/chayas/anaconda/envs/py35/share/psi4/basis/aug-cc-pvtz.gbs 


         ---------------------------------------------------------
                                   SCF
            by Justin Turney, Rob Parrish, and Andy Simmonett
                              RHF Reference
                        1 Threads,    953 MiB Core
         ---------------------------------------------------------

  ==> Geometry <==

    Molecular point group: c1
    Full point group: C1

    Geometry (in Angstrom), charge = 0, multiplicity = 1:

       Center              X                  Y                   Z               Mass       
    ------------   -----------------  -----------------  -----------------  -----------------
           H         -2.330377378323     0.058460926531     0.317115726599     1.007825032070
           H         -2.187281456485     1.698651634399    -0.307804449490     1.007825032070
           H         -1.887578481947     0.324920733216    -1.367137147859     1.007825032070
           C         -1.777465522419     0.697966616351    -0.357843534325    12.000000000000
           H          0.250654626196     1.348953184912    -0.645180333491     1.007825032070
           H         -0.192202979732     1.082263864716     1.043388040794     1.007825032070
           C         -0.295326986329     0.705307778594     0.033800029281    12.000000000000
           H         -0.253972484030    -1.346397725919     0.645513383433     1.007825032070
           H          0.189931067518    -1.082508999849    -1.042165748643     1.007825032070
           C          0.293494270367    -0.704565872104    -0.033037890274    12.000000000000
           H          2.098808847101    -1.691324264188     0.644776782750     1.007825032070
           H          1.937655744938    -0.025548960807     1.189297441084     1.007825032070
           H          2.379534816930    -0.369830830420    -0.480015636085     1.007825032070
           C          1.778863838734    -0.698510280517     0.357267166103    12.000000000000

  Running in c1 symmetry.

  Rotational constants: A =      0.77674  B =      0.12348  C =      0.11571 [cm^-1]
  Rotational constants: A =  23286.06938  B =   3701.92881  C =   3468.87828 [MHz]
  Nuclear repulsion =  131.414359344241461

  Charge       = 0
  Multiplicity = 1
  Electrons    = 34
  Nalpha       = 17
  Nbeta        = 17

  ==> Algorithm <==

  SCF Algorithm Type is DF.
  DIIS enabled.
  MOM disabled.
  Fractional occupation disabled.
  Guess Type is READ.
  Energy threshold   = 1.00e-10
  Density threshold  = 1.00e-10
  Integral threshold = 0.00e+00

  ==> Primary Basis <==

  Basis Set: AUG-CC-PVTZ
    Blend: AUG-CC-PVTZ
    Number of shells: 146
    Number of basis function: 414
    Number of Cartesian functions: 470
    Spherical Harmonics?: true
    Max angular momentum: 3

   => Loading Basis Set <=

    Name: (AUG-CC-PVTZ AUX)
    Role: JKFIT
    Keyword: DF_BASIS_SCF
    atoms 1-3, 5-6, 8-9, 11-13 entry H          line    69 file /cbio/jclab/home/chayas/anaconda/envs/py35/share/psi4/basis/aug-cc-pvtz-jkfit.gbs 
    atoms 4, 7, 10, 14         entry C          line   161 file /cbio/jclab/home/chayas/anaconda/envs/py35/share/psi4/basis/aug-cc-pvtz-jkfit.gbs 

  Reading orbitals from file 180, no projection.

  ==> Pre-Iterations <==

   -------------------------------------------------------
    Irrep   Nso     Nmo     Nalpha   Nbeta   Ndocc  Nsocc
   -------------------------------------------------------
     A        414     414       0       0       0       0
   -------------------------------------------------------
    Total     414     414      17      17      17       0
   -------------------------------------------------------

  ==> Integral Setup <==

  ==> DFJK: Density-Fitted J/K Matrices <==

    J tasked:                  Yes
    K tasked:                  Yes
    wK tasked:                  No
    OpenMP threads:              1
    Integrals threads:           1
    Memory (MB):               715
    Algorithm:                Core
    Integral Cache:           NONE
    Schwarz Cutoff:          1E-12
    Fitting Condition:       1E-12

   => Auxiliary Basis Set <=

  Basis Set: (AUG-CC-PVTZ AUX)
    Blend: AUG-CC-PVTZ-JKFIT
    Number of shells: 260
    Number of basis function: 876
    Number of Cartesian functions: 1074
    Spherical Harmonics?: true
    Max angular momentum: 4

  Minimum eigenvalue in the overlap matrix is 8.7132202496E-06.
  Using Symmetric Orthogonalization.

  SCF Guess: Orbitals guess was supplied from a previous computation.

  ==> Iterations <==

                           Total Energy        Delta E     RMS |[F,P]|

   @DF-RHF iter   0:  -157.27696950517563   -1.57277e+02   1.24155e-04 
   @DF-RHF iter   1:  -157.35377537937768   -7.68059e-02   5.16282e-05 
   @DF-RHF iter   2:  -157.35404730893828   -2.71930e-04   2.67137e-05 DIIS
   @DF-RHF iter   3:  -157.35410515267088   -5.78437e-05   2.87418e-06 DIIS
   @DF-RHF iter   4:  -157.35410661548886   -1.46282e-06   7.73826e-07 DIIS
   @DF-RHF iter   5:  -157.35410670473667   -8.92478e-08   2.58418e-07 DIIS
   @DF-RHF iter   6:  -157.35410671494085   -1.02042e-08   4.27224e-08 DIIS
   @DF-RHF iter   7:  -157.35410671535243   -4.11575e-10   6.20741e-09 DIIS
   @DF-RHF iter   8:  -157.35410671536295   -1.05160e-11   1.09455e-09 DIIS
   @DF-RHF iter   9:  -157.35410671536633   -3.38218e-12   2.58465e-10 DIIS
   @DF-RHF iter  10:  -157.35410671536218    4.14957e-12   5.93876e-11 DIIS

  ==> Post-Iterations <==

    Orbital Energies (a.u.)
    -----------------------

    Doubly Occupied:                                                      

       1A    -11.210337     2A    -11.209667     3A    -11.203737  
       4A    -11.203527     5A     -1.071067     6A     -0.979684  
       7A     -0.860129     8A     -0.789321     9A     -0.645028  
      10A     -0.584750    11A     -0.572315    12A     -0.572114  
      13A     -0.512399    14A     -0.500157    15A     -0.469772  
      16A     -0.465180    17A     -0.449012  

    Virtual:                                                              

      18A      0.032287    19A      0.037083    20A      0.039591  
      21A      0.040800    22A      0.057005    23A      0.058488  
      24A      0.059727    25A      0.061242    26A      0.081781  
      27A      0.083249    28A      0.098521    29A      0.112390  
      30A      0.123045    31A      0.130790    32A      0.136024  
      33A      0.141694    34A      0.143268    35A      0.146313  
      36A      0.148289    37A      0.159796    38A      0.161309  
      39A      0.167594    40A      0.170926    41A      0.202052  
      42A      0.209226    43A      0.211647    44A      0.229020  
      45A      0.246051    46A      0.248733    47A      0.251130  
      48A      0.268335    49A      0.274681    50A      0.281759  
      51A      0.283504    52A      0.315632    53A      0.318153  
      54A      0.330459    55A      0.336001    56A      0.341911  
      57A      0.350001    58A      0.357236    59A      0.357321  
      60A      0.361312    61A      0.373225    62A      0.373907  
      63A      0.383008    64A      0.386426    65A      0.389617  
      66A      0.391472    67A      0.396307    68A      0.401747  
      69A      0.405211    70A      0.412827    71A      0.421942  
      72A      0.428564    73A      0.441522    74A      0.446675  
      75A      0.452971    76A      0.459590    77A      0.462243  
      78A      0.463894    79A      0.472703    80A      0.479298  
      81A      0.485980    82A      0.492515    83A      0.499307  
      84A      0.503043    85A      0.507021    86A      0.512047  
      87A      0.519960    88A      0.532656    89A      0.533933  
      90A      0.536999    91A      0.546061    92A      0.560797  
      93A      0.567019    94A      0.572063    95A      0.586578  
      96A      0.591395    97A      0.602171    98A      0.610027  
      99A      0.621883   100A      0.629991   101A      0.638923  
     102A      0.660016   103A      0.678272   104A      0.683306  
     105A      0.701203   106A      0.709338   107A      0.762586  
     108A      0.779054   109A      0.796640   110A      0.813304  
     111A      0.822044   112A      0.827559   113A      0.834856  
     114A      0.843271   115A      0.848319   116A      0.858928  
     117A      0.864026   118A      0.866787   119A      0.884084  
     120A      0.890786   121A      0.895008   122A      0.900923  
     123A      0.904725   124A      0.919463   125A      0.924115  
     126A      0.929864   127A      0.935623   128A      0.941485  
     129A      0.942282   130A      0.957706   131A      0.964282  
     132A      0.970662   133A      0.977020   134A      0.985363  
     135A      0.993662   136A      1.013851   137A      1.018262  
     138A      1.033940   139A      1.047856   140A      1.064297  
     141A      1.071595   142A      1.078660   143A      1.091622  
     144A      1.108104   145A      1.110837   146A      1.121696  
     147A      1.128455   148A      1.130995   149A      1.140811  
     150A      1.155518   151A      1.160552   152A      1.162793  
     153A      1.173659   154A      1.190223   155A      1.196907  
     156A      1.217612   157A      1.220758   158A      1.229819  
     159A      1.243782   160A      1.252793   161A      1.257924  
     162A      1.261317   163A      1.270539   164A      1.277163  
     165A      1.291734   166A      1.299314   167A      1.315900  
     168A      1.323009   169A      1.338688   170A      1.349622  
     171A      1.357306   172A      1.384942   173A      1.397489  
     174A      1.419540   175A      1.427759   176A      1.437957  
     177A      1.457980   178A      1.480117   179A      1.497144  
     180A      1.503705   181A      1.517748   182A      1.524503  
     183A      1.550853   184A      1.558015   185A      1.561584  
     186A      1.587213   187A      1.591550   188A      1.614331  
     189A      1.627310   190A      1.639391   191A      1.645400  
     192A      1.649412   193A      1.673643   194A      1.690543  
     195A      1.692063   196A      1.699719   197A      1.709160  
     198A      1.717199   199A      1.731228   200A      1.740152  
     201A      1.745956   202A      1.758774   203A      1.765360  
     204A      1.773467   205A      1.782576   206A      1.792371  
     207A      1.794282   208A      1.805050   209A      1.818305  
     210A      1.843105   211A      1.862469   212A      1.866750  
     213A      1.885014   214A      1.900164   215A      1.912045  
     216A      1.922392   217A      1.953506   218A      1.970120  
     219A      1.977970   220A      1.987938   221A      1.992549  
     222A      2.003406   223A      2.028844   224A      2.035472  
     225A      2.041239   226A      2.061854   227A      2.088098  
     228A      2.098466   229A      2.118508   230A      2.140942  
     231A      2.156108   232A      2.183773   233A      2.192222  
     234A      2.208876   235A      2.237665   236A      2.249121  
     237A      2.258833   238A      2.273741   239A      2.294939  
     240A      2.299957   241A      2.325919   242A      2.328218  
     243A      2.339536   244A      2.346122   245A      2.363046  
     246A      2.371291   247A      2.420797   248A      2.441203  
     249A      2.467787   250A      2.479005   251A      2.508247  
     252A      2.543753   253A      2.603614   254A      2.618582  
     255A      2.640500   256A      2.661728   257A      2.728960  
     258A      2.897857   259A      2.933976   260A      3.026911  
     261A      3.240062   262A      3.245462   263A      3.293170  
     264A      3.379676   265A      3.396257   266A      3.425669  
     267A      3.451830   268A      3.458719   269A      3.466107  
     270A      3.484832   271A      3.521154   272A      3.542375  
     273A      3.571052   274A      3.578866   275A      3.599885  
     276A      3.607296   277A      3.635787   278A      3.658388  
     279A      3.679536   280A      3.686237   281A      3.712889  
     282A      3.722557   283A      3.731048   284A      3.743465  
     285A      3.753094   286A      3.767790   287A      3.779433  
     288A      3.797530   289A      3.809502   290A      3.820660  
     291A      3.847962   292A      3.858104   293A      3.875941  
     294A      3.882973   295A      3.911472   296A      3.921637  
     297A      3.940231   298A      3.948521   299A      3.970871  
     300A      3.987609   301A      3.997491   302A      4.006184  
     303A      4.013706   304A      4.013966   305A      4.044341  
     306A      4.050633   307A      4.062144   308A      4.077370  
     309A      4.123210   310A      4.178068   311A      4.191581  
     312A      4.206232   313A      4.220986   314A      4.226421  
     315A      4.237306   316A      4.264393   317A      4.265487  
     318A      4.280188   319A      4.298982   320A      4.320508  
     321A      4.330783   322A      4.365036   323A      4.369398  
     324A      4.399353   325A      4.416867   326A      4.422207  
     327A      4.514473   328A      4.531765   329A      4.565971  
     330A      4.575013   331A      4.618040   332A      4.649597  
     333A      4.665387   334A      4.681871   335A      4.705221  
     336A      4.718906   337A      4.724586   338A      4.736036  
     339A      4.763620   340A      4.776739   341A      4.787597  
     342A      4.837127   343A      4.853180   344A      4.868041  
     345A      4.873716   346A      4.899826   347A      4.927838  
     348A      4.939684   349A      4.952314   350A      4.998140  
     351A      5.027163   352A      5.045981   353A      5.063567  
     354A      5.078979   355A      5.107489   356A      5.153580  
     357A      5.162000   358A      5.179915   359A      5.188995  
     360A      5.227353   361A      5.229587   362A      5.248482  
     363A      5.252091   364A      5.288726   365A      5.297053  
     366A      5.326496   367A      5.371976   368A      5.386486  
     369A      5.415443   370A      5.431307   371A      5.435023  
     372A      5.453775   373A      5.470416   374A      5.489629  
     375A      5.553995   376A      5.569407   377A      5.600957  
     378A      5.614340   379A      5.652541   380A      5.655841  
     381A      5.694808   382A      5.733128   383A      5.738220  
     384A      5.751407   385A      5.811959   386A      5.815220  
     387A      5.871068   388A      5.881942   389A      5.923079  
     390A      5.996324   391A      6.064711   392A      6.126947  
     393A      6.136761   394A      6.160748   395A      6.204846  
     396A      6.224968   397A      6.232090   398A      6.270759  
     399A      6.279311   400A      6.324510   401A      6.367798  
     402A      6.404645   403A      6.550130   404A      6.561352  
     405A      6.735967   406A      6.779104   407A      6.827248  
     408A      6.843582   409A      6.854319   410A      6.987118  
     411A     17.974083   412A     18.187873   413A     18.504300  
     414A     18.844812  

    Final Occupation by Irrep:
              A 
    DOCC [    17 ]

  Energy converged.

  @DF-RHF Final Energy:  -157.35410671536218

   => Energetics <=

    Nuclear Repulsion Energy =            131.4143593442414613
    One-Electron Energy =                -470.9405376381737369
    Two-Electron Energy =                 182.1720715785700975
    DFT Exchange-Correlation Energy =       0.0000000000000000
    Empirical Dispersion Energy =           0.0000000000000000
    PCM Polarization Energy =               0.0000000000000000
    EFP Energy =                            0.0000000000000000
    Total Energy =                       -157.3541067153621782



Properties will be evaluated at   0.000000,   0.000000,   0.000000 Bohr

Properties computed using the SCF density matrix

  Nuclear Dipole Moment: (a.u.)
     X:     0.0048      Y:    -0.0022      Z:    -0.0021

  Electronic Dipole Moment: (a.u.)
     X:    -0.0046      Y:     0.0023      Z:     0.0005

  Dipole Moment: (a.u.)
     X:     0.0002      Y:     0.0001      Z:    -0.0016     Total:     0.0016

  Dipole Moment: (Debye)
     X:     0.0006      Y:     0.0002      Z:    -0.0040     Total:     0.0041


*** tstop() called on gpu-1-7.local at Wed Jun 14 15:02:44 2017
Module time:
	user time   =      77.79 seconds =       1.30 minutes
	system time =       0.41 seconds =       0.01 minutes
	total time  =         78 seconds =       1.30 minutes
Total time:
	user time   =     550.11 seconds =       9.17 minutes
	system time =       4.03 seconds =       0.07 minutes
	total time  =        554 seconds =       9.23 minutes

  //>>>>>>>>>>>>>>>>>>>>>>>>>>>>>>>>>>>//
  //               DFMP2               //
  //<<<<<<<<<<<<<<<<<<<<<<<<<<<<<<<<<<<//

   => Loading Basis Set <=

    Name: (AUG-CC-PVTZ AUX)
    Role: RIFIT
    Keyword: DF_BASIS_MP2
    atoms 1-3, 5-6, 8-9, 11-13 entry H          line    29 file /cbio/jclab/home/chayas/anaconda/envs/py35/share/psi4/basis/aug-cc-pvtz-ri.gbs 
    atoms 4, 7, 10, 14         entry C          line   147 file /cbio/jclab/home/chayas/anaconda/envs/py35/share/psi4/basis/aug-cc-pvtz-ri.gbs 

	 --------------------------------------------------------
	                          DF-MP2                         
	      2nd-Order Density-Fitted Moller-Plesset Theory     
	              RMP2 Wavefunction,   1 Threads             
	                                                         
	        Rob Parrish, Justin Turney, Andy Simmonett,      
	           Ed Hohenstein, and C. David Sherrill          
	 --------------------------------------------------------

   => Auxiliary Basis Set <=

  Basis Set: (AUG-CC-PVTZ AUX)
    Blend: AUG-CC-PVTZ-RI
    Number of shells: 252
    Number of basis function: 884
    Number of Cartesian functions: 1094
    Spherical Harmonics?: true
    Max angular momentum: 4

	 --------------------------------------------------------
	                 NBF =   414, NAUX =   884
	 --------------------------------------------------------
	   CLASS    FOCC     OCC    AOCC    AVIR     VIR    FVIR
	   PAIRS       0      17      17     397     397       0
	 --------------------------------------------------------


         ------------------------------------------------------------
                                     CPHF                           
                                  Rob Parrish                       
         ------------------------------------------------------------

  ==> Geometry <==

    Molecular point group: c1
    Full point group: C1

    Geometry (in Angstrom), charge = 0, multiplicity = 1:

       Center              X                  Y                   Z               Mass       
    ------------   -----------------  -----------------  -----------------  -----------------
           H         -2.330377378323     0.058460926531     0.317115726599     1.007825032070
           H         -2.187281456485     1.698651634399    -0.307804449490     1.007825032070
           H         -1.887578481947     0.324920733216    -1.367137147859     1.007825032070
           C         -1.777465522419     0.697966616351    -0.357843534325    12.000000000000
           H          0.250654626196     1.348953184912    -0.645180333491     1.007825032070
           H         -0.192202979732     1.082263864716     1.043388040794     1.007825032070
           C         -0.295326986329     0.705307778594     0.033800029281    12.000000000000
           H         -0.253972484030    -1.346397725919     0.645513383433     1.007825032070
           H          0.189931067518    -1.082508999849    -1.042165748643     1.007825032070
           C          0.293494270367    -0.704565872104    -0.033037890274    12.000000000000
           H          2.098808847101    -1.691324264188     0.644776782750     1.007825032070
           H          1.937655744938    -0.025548960807     1.189297441084     1.007825032070
           H          2.379534816930    -0.369830830420    -0.480015636085     1.007825032070
           C          1.778863838734    -0.698510280517     0.357267166103    12.000000000000

  Nuclear repulsion =  131.414359344241461
  Reference energy  = -157.354106715362178

  ==> Basis Set <==

  Basis Set: AUG-CC-PVTZ
    Blend: AUG-CC-PVTZ
    Number of shells: 146
    Number of basis function: 414
    Number of Cartesian functions: 470
    Spherical Harmonics?: true
    Max angular momentum: 3

  ==> CGRSolver (by Rob Parrish) <==

   Number of roots    =         1
   Preconditioning    =    JACOBI
   Convergence cutoff =     1E-06
   Maximum iterations =       100

  ==> CPHFRHamiltonian (by Rob Parrish) <== 

  ==> DFJK: Density-Fitted J/K Matrices <==

    J tasked:                  Yes
    K tasked:                  Yes
    wK tasked:                  No
    OpenMP threads:              1
    Integrals threads:           1
    Memory (MB):               715
    Algorithm:                Core
    Integral Cache:           NONE
    Schwarz Cutoff:          1E-12
    Fitting Condition:       1E-12

   => Auxiliary Basis Set <=

  Basis Set: (AUG-CC-PVTZ AUX)
    Blend: AUG-CC-PVTZ-JKFIT
    Number of shells: 260
    Number of basis function: 876
    Number of Cartesian functions: 1074
    Spherical Harmonics?: true
    Max angular momentum: 4

  ==> CPHF Iterations <==

  => Iterations <=

             Iter  Converged  Remaining    Residual
  CGR           1          0          1   8.304E-02
  CGR           2          0          1   1.324E-02
  CGR           3          0          1   3.489E-03
  CGR           4          0          1   8.146E-04
  CGR           5          0          1   1.202E-04
  CGR           6          0          1   2.189E-05
  CGR           7          0          1   3.815E-06
  CGR           8          1          0   8.540E-07

    CGRSolver converged.

  ==> DFCorrGrad: Density-Fitted Correlated Gradients <==

    OpenMP threads:              1
    Integrals threads:           1
    Memory (MB):               715
    Schwarz Cutoff:          0E+00
    Fitting Condition:       1E-12

   => Auxiliary Basis Set <=

  Basis Set: (AUG-CC-PVTZ AUX)
    Blend: AUG-CC-PVTZ-JKFIT
    Number of shells: 260
    Number of basis function: 876
    Number of Cartesian functions: 1074
    Spherical Harmonics?: true
    Max angular momentum: 4

	-----------------------------------------------------------
	 ==================> DF-MP2 Energies <==================== 
	-----------------------------------------------------------
	 Reference Energy          =    -157.3541067153621782 [Eh]
	 Singles Energy            =      -0.0000000000000000 [Eh]
	 Same-Spin Energy          =      -0.1653430676488331 [Eh]
	 Opposite-Spin Energy      =      -0.6392915744341620 [Eh]
	 Correlation Energy        =      -0.8046346420829951 [Eh]
	 Total Energy              =    -158.1587413574451659 [Eh]
	-----------------------------------------------------------
	 ================> DF-SCS-MP2 Energies <================== 
	-----------------------------------------------------------
	 SCS Same-Spin Scale       =       0.3333333333333333 [-]
	 SCS Opposite-Spin Scale   =       1.2000000000000000 [-]
	 SCS Same-Spin Energy      =      -0.0551143558829443 [Eh]
	 SCS Opposite-Spin Energy  =      -0.7671498893209944 [Eh]
	 SCS Correlation Energy    =      -0.8222642452039387 [Eh]
	 SCS Total Energy          =    -158.1763709605661177 [Eh]
	-----------------------------------------------------------


  -Total Gradient:
     Atom            X                  Y                   Z
    ------   -----------------  -----------------  -----------------
       1        0.003426821109     0.002167924726    -0.001309606566
       2        0.003312579268    -0.002206283355     0.000480860124
       3        0.002229658382     0.001457974668     0.003407869297
       4       -0.013655103347    -0.003770685703    -0.004090996316
       5       -0.003464082217    -0.004091907521     0.000207895014
       6       -0.002348966356    -0.003187877496    -0.003186578508
       7        0.012452209004     0.015517977261     0.007380946091
       8        0.003611829741     0.003356572678    -0.000767771856
       9        0.002839990347     0.004093138597     0.002757073973
      10       -0.012071152653    -0.015696027515    -0.006671893122
      11       -0.003499403058     0.002505168663    -0.000479876877
      12       -0.002148456198    -0.001472917758    -0.003303710713
      13       -0.003515192153    -0.002234560229     0.001241602706
      14        0.012829268128     0.003561502984     0.004334186750


*** tstop() called on gpu-1-7.local at Wed Jun 14 15:09:00 2017
Module time:
	user time   =     450.57 seconds =       7.51 minutes
	system time =       3.26 seconds =       0.05 minutes
	total time  =        454 seconds =       7.57 minutes
Total time:
	user time   =     922.89 seconds =      15.38 minutes
	system time =       6.88 seconds =       0.11 minutes
	total time  =        930 seconds =      15.50 minutes

			-----------------------------------------
			 OPTKING 2.0: for geometry optimizations 
			  - R.A. King,  Bethel University        
			-----------------------------------------

	Previous internal coordinate definitions found.
	---Fragment 1 Geometry and Gradient---
	 H          -4.4037750313        0.1104751406        0.5992618757
	 H          -4.1333629283        3.2099863842       -0.5816661120
	 H          -3.5670063852        0.6140112007       -2.5835147955
	 C          -3.3589230480        1.3189657548       -0.6762262783
	 H           0.4736685975        2.5491520856       -1.2192141366
	 H          -0.3632109936        2.0451823078        1.9717176474
	 C          -0.5580871238        1.3328385409        0.0638727986
	 H          -0.4799384401       -2.5443229679        1.2198435098
	 H           0.3589177017       -2.0456455461       -1.9694078500
	 C           0.5546237926       -1.3314365409       -0.0624325646
	 H           3.9661739263       -3.1961396612        1.2184515362
	 H           3.6616386977       -0.0482805389        2.2474464542
	 H           4.4966691277       -0.6988789850       -0.9070980917
	 C           3.3615654829       -1.3199931312        0.6751371002
	             0.0034268211        0.0021679247       -0.0013096066
	             0.0033125793       -0.0022062834        0.0004808601
	             0.0022296584        0.0014579747        0.0034078693
	            -0.0136551033       -0.0037706857       -0.0040909963
	            -0.0034640822       -0.0040919075        0.0002078950
	            -0.0023489664       -0.0031878775       -0.0031865785
	             0.0124522090        0.0155179773        0.0073809461
	             0.0036118297        0.0033565727       -0.0007677719
	             0.0028399903        0.0040931386        0.0027570740
	            -0.0120711527       -0.0156960275       -0.0066718931
	            -0.0034994031        0.0025051687       -0.0004798769
	            -0.0021484562       -0.0014729178       -0.0033037107
	            -0.0035151922       -0.0022345602        0.0012416027
	             0.0128292681        0.0035615030        0.0043341868

	---Fragment 1 Intrafragment Coordinates---
	 - Coordinate -           - BOHR/RAD -       - ANG/DEG -
	 R(1,4)           =         2.044269	       1.081781
	 R(2,4)           =         2.045644	       1.082508
	 R(3,4)           =         2.044018	       1.081648
	 R(4,7)           =         2.897002	       1.533027
	 R(5,7)           =         2.047010	       1.083231
	 R(6,7)           =         2.045796	       1.082589
	 R(7,10)          =         2.890059	       1.529353
	 R(8,10)          =         2.045885	       1.082636
	 R(9,10)          =         2.045715	       1.082546
	 R(10,14)         =         2.902251	       1.535805
	 R(11,14)         =         2.044668	       1.081992
	 R(12,14)         =         2.044371	       1.081835
	 R(13,14)         =         2.043945	       1.081609
	 B(1,4,2)         =         1.900897	     108.913362
	 B(1,4,3)         =         1.903164	     109.043264
	 B(1,4,7)         =         1.915142	     109.729533
	 B(2,4,3)         =         1.900128	     108.869338
	 B(2,4,7)         =         1.928130	     110.473688
	 B(3,4,7)         =         1.916071	     109.782773
	 B(4,7,5)         =         1.907114	     109.269565
	 B(4,7,6)         =         1.909226	     109.390582
	 B(4,7,10)        =         1.935479	     110.894800
	 B(5,7,6)         =         1.906713	     109.246604
	 B(5,7,10)        =         1.903201	     109.045409
	 B(6,7,10)        =         1.901890	     108.970255
	 B(7,10,8)        =         1.901218	     108.931761
	 B(7,10,9)        =         1.902607	     109.011378
	 B(7,10,14)       =         1.936523	     110.954589
	 B(8,10,9)        =         1.905935	     109.202023
	 B(8,10,14)       =         1.909355	     109.397993
	 B(9,10,14)       =         1.907951	     109.317513
	 B(10,14,11)      =         1.928262	     110.481278
	 B(10,14,12)      =         1.917572	     109.868800
	 B(10,14,13)      =         1.919394	     109.973185
	 B(11,14,12)      =         1.899713	     108.845527
	 B(11,14,13)      =         1.896859	     108.682006
	 B(12,14,13)      =         1.901613	     108.954427
	 D(1,4,7,5)       =        -3.139705	    -179.891858
	 D(1,4,7,6)       =        -1.053093	     -60.337756
	 D(1,4,7,10)      =         1.045062	      59.877650
	 D(2,4,7,5)       =        -1.043611	     -59.794492
	 D(2,4,7,6)       =         1.043002	      59.759610
	 D(2,4,7,10)      =         3.141157	     179.975017
	 D(3,4,7,5)       =         1.052125	      60.282328
	 D(3,4,7,6)       =         3.138738	     179.836430
	 D(3,4,7,10)      =        -1.046293	     -59.948164
	 D(4,7,10,8)      =        -1.040026	     -59.589082
	 D(4,7,10,9)      =         1.038219	      59.485563
	 D(4,7,10,14)     =         3.140268	     179.924102
	 D(5,7,10,8)      =        -3.140770	    -179.952852
	 D(5,7,10,9)      =        -1.062525	     -60.878208
	 D(5,7,10,14)     =         1.039524	      59.560332
	 D(6,7,10,8)      =         1.062489	      60.876134
	 D(6,7,10,9)      =         3.140734	     179.950779
	 D(6,7,10,14)     =        -1.040403	     -59.610682
	 D(7,10,14,11)    =         2.795625	     160.177512
	 D(7,10,14,12)    =         0.699359	      40.070334
	 D(7,10,14,13)    =        -1.393671	     -79.851470
	 D(8,10,14,11)    =         0.697564	      39.967455
	 D(8,10,14,12)    =        -1.398702	     -80.139723
	 D(8,10,14,13)    =         2.791453	     159.938473
	 D(9,10,14,11)    =        -1.388683	     -79.565675
	 D(9,10,14,12)    =         2.798237	     160.327148
	 D(9,10,14,13)    =         0.705206	      40.405344

	Current energy   :      -158.1587413574

	Energy change for the previous step:
		Projected    :        -0.0046140298
		Actual       :        -0.0030413137

	Performing BFGS update.
	Previous computed or guess Hessian on step 1.
	Steps to be used in Hessian update: 1
	Adding user-defined constraint: Fragment 1; Coordinate 58:
		Value =    -1.393671; Fixed value    =    -1.396260
		Force =    -0.001359; Force constant =     0.525000
	Removing off-diagonal coupling between coordinate 58 and others.
	Taking RFO optimization step.
	Going to follow RFO solution 1.
	Using RFO vector 1.

	Determining step-restricting scale parameter for RS-RFO.
	Maximum step size allowed    0.10000

	 Iter      |step|        alpha        rfo_root  
	------------------------------------------------
	    0     0.17551       1.00000           1
	    1     0.14290       4.64375           1
	    2     0.11660      13.43225           1
	    3     0.10350      21.80208           1
	    4     0.10021      24.60564           1
	    5     0.10000      24.79520           1
	------------------------------------------------
	Norm of target step-size    0.10000
	Projected energy change by RFO approximation:        -0.0004711340

	Back-transformation to cartesian coordinates...
	Successfully converged to displaced geometry.

	--- Internal Coordinate Step in ANG or DEG, aJ/ANG or AJ/DEG ---
	 ---------------------------------------------------------------------------
	   Coordinate                Previous        Force       Change         New 
	   ----------                --------       ------       ------       ------
	    1 R(1,4)          =      1.081781     0.031721     0.005898     1.087679
	    2 R(2,4)          =      1.082508     0.026952     0.004783     1.087291
	    3 R(3,4)          =      1.081648     0.032211     0.005973     1.087621
	    4 R(4,7)          =      1.533027    -0.040600    -0.010919     1.522109
	    5 R(5,7)          =      1.083231     0.035490     0.006668     1.089899
	    6 R(6,7)          =      1.082589     0.035472     0.006664     1.089253
	    7 R(7,10)         =      1.529353    -0.039559    -0.009820     1.519533
	    8 R(8,10)         =      1.082636     0.035406     0.006633     1.089268
	    9 R(9,10)         =      1.082546     0.035186     0.006588     1.089134
	   10 R(10,14)        =      1.535805    -0.033042    -0.009384     1.526421
	   11 R(11,14)        =      1.081992     0.028514     0.005086     1.087078
	   12 R(12,14)        =      1.081835     0.031080     0.005814     1.087649
	   13 R(13,14)        =      1.081609     0.029596     0.005454     1.087063
	   14 B(1,4,2)        =    108.913362    -0.000155    -0.670074   108.243288
	   15 B(1,4,3)        =    109.043264    -0.000153    -0.811127   108.232137
	   16 B(1,4,7)        =    109.729533     0.000122     0.597056   110.326589
	   17 B(2,4,3)        =    108.869338    -0.000154    -0.657039   108.212299
	   18 B(2,4,7)        =    110.473688     0.000204     0.859949   111.333637
	   19 B(3,4,7)        =    109.782773     0.000126     0.614009   110.396782
	   20 B(4,7,5)        =    109.269565    -0.000028     0.140314   109.409879
	   21 B(4,7,6)        =    109.390582    -0.000022     0.135085   109.525667
	   22 B(4,7,10)       =    110.894800     0.000267     1.096239   111.991039
	   23 B(5,7,6)        =    109.246604    -0.000078    -1.141032   108.105572
	   24 B(5,7,10)       =    109.045409    -0.000062    -0.072625   108.972784
	   25 B(6,7,10)       =    108.970255    -0.000083    -0.217529   108.752726
	   26 B(7,10,8)       =    108.931761    -0.000089    -0.299579   108.632182
	   27 B(7,10,9)       =    109.011378    -0.000070    -0.050404   108.960974
	   28 B(7,10,14)      =    110.954589     0.000275     1.123152   112.077741
	   29 B(8,10,9)       =    109.202023    -0.000083    -1.176948   108.025075
	   30 B(8,10,14)      =    109.397993    -0.000014     0.157619   109.555612
	   31 B(9,10,14)      =    109.317513    -0.000024     0.180952   109.498465
	   32 B(10,14,11)     =    110.481278     0.000202     0.766842   111.248120
	   33 B(10,14,12)     =    109.868800     0.000123     0.643865   110.512665
	   34 B(10,14,13)     =    109.973185     0.000144     0.673869   110.647054
	   35 B(11,14,12)     =    108.845527    -0.000158    -0.681787   108.163740
	   36 B(11,14,13)     =    108.682006    -0.000189    -0.930689   107.751318
	   37 B(12,14,13)     =    108.954427    -0.000132    -0.545366   108.409060
	   38 D(1,4,7,5)      =   -179.891858     0.000011     0.517799  -179.374059
	   39 D(1,4,7,6)      =    -60.337756    -0.000017    -0.706142   -61.043898
	   40 D(1,4,7,10)     =     59.877650    -0.000006    -0.185889    59.691761
	   41 D(2,4,7,5)      =    -59.794492     0.000015     0.624323   -59.170169
	   42 D(2,4,7,6)      =     59.759610    -0.000014    -0.599618    59.159992
	   43 D(2,4,7,10)     =    179.975017    -0.000002    -0.079366   179.895651
	   44 D(3,4,7,5)      =     60.282328     0.000019     0.759280    61.041608
	   45 D(3,4,7,6)      =    179.836430    -0.000010    -0.464661   179.371769
	   46 D(3,4,7,10)     =    -59.948164     0.000002     0.055592   -59.892572
[...]
  CGR           2          0          1   1.343E-02
  CGR           3          0          1   3.544E-03
  CGR           4          0          1   8.166E-04
  CGR           5          0          1   1.199E-04
  CGR           6          0          1   2.230E-05
  CGR           7          0          1   3.944E-06
  CGR           8          1          0   9.033E-07

    CGRSolver converged.

  ==> DFCorrGrad: Density-Fitted Correlated Gradients <==

    OpenMP threads:              1
    Integrals threads:           1
    Memory (MB):               715
    Schwarz Cutoff:          0E+00
    Fitting Condition:       1E-12

   => Auxiliary Basis Set <=

  Basis Set: (AUG-CC-PVTZ AUX)
    Blend: AUG-CC-PVTZ-JKFIT
    Number of shells: 260
    Number of basis function: 876
    Number of Cartesian functions: 1074
    Spherical Harmonics?: true
    Max angular momentum: 4

	-----------------------------------------------------------
	 ==================> DF-MP2 Energies <==================== 
	-----------------------------------------------------------
	 Reference Energy          =    -157.3552336222684289 [Eh]
	 Singles Energy            =      -0.0000000000000000 [Eh]
	 Same-Spin Energy          =      -0.1654437532582664 [Eh]
	 Opposite-Spin Energy      =      -0.6393218957923006 [Eh]
	 Correlation Energy        =      -0.8047656490505669 [Eh]
	 Total Energy              =    -158.1599992713190090 [Eh]
	-----------------------------------------------------------
	 ================> DF-SCS-MP2 Energies <================== 
	-----------------------------------------------------------
	 SCS Same-Spin Scale       =       0.3333333333333333 [-]
	 SCS Opposite-Spin Scale   =       1.2000000000000000 [-]
	 SCS Same-Spin Energy      =      -0.0551479177527554 [Eh]
	 SCS Opposite-Spin Energy  =      -0.7671862749507606 [Eh]
	 SCS Correlation Energy    =      -0.8223341927035160 [Eh]
	 SCS Total Energy          =    -158.1775678149719511 [Eh]
	-----------------------------------------------------------


  -Total Gradient:
     Atom            X                  Y                   Z
    ------   -----------------  -----------------  -----------------
       1       -0.000008965576    -0.000001120272    -0.000003978801
       2       -0.000015377408     0.000004281575    -0.000001913450
       3        0.000006558810    -0.000000760136    -0.000003773900
       4        0.000000508391     0.000008363686     0.000030482939
       5        0.000009086430    -0.000005312939    -0.000005570521
       6       -0.000008286505     0.000003440163    -0.000013345983
       7       -0.000488516885    -0.000281042448     0.001954540962
       8        0.000010211586     0.000004995489    -0.000015237893
       9       -0.000004020392    -0.000000417625    -0.000017285491
      10        0.000737745325    -0.000294315470    -0.002919589401
      11        0.000008019095     0.000007173055     0.000002574680
      12        0.000013775150     0.000007842257     0.000011756395
      13        0.000212887644    -0.002661911568    -0.000868611735
      14       -0.000473625662     0.003208784235     0.001849952201


*** tstop() called on gpu-1-7.local at Wed Jun 14 15:38:39 2017
Module time:
	user time   =     431.05 seconds =       7.18 minutes
	system time =       3.25 seconds =       0.05 minutes
	total time  =        434 seconds =       7.23 minutes
Total time:
	user time   =    2688.94 seconds =      44.82 minutes
	system time =      20.22 seconds =       0.34 minutes
	total time  =       2709 seconds =      45.15 minutes

			-----------------------------------------
			 OPTKING 2.0: for geometry optimizations 
			  - R.A. King,  Bethel University        
			-----------------------------------------

	Previous internal coordinate definitions found.
	---Fragment 1 Geometry and Gradient---
	 H          -4.4475165912        0.0716765916        0.5324016897
	 H          -4.1713143614        3.1916674591       -0.5863062556
	 H          -3.5770088567        0.6312999936       -2.6242145295
	 C          -3.3544634478        1.3090218244       -0.6949630538
	 H           0.4730304926        2.5759504011       -1.1605350623
	 H          -0.3957196572        2.0458521956        1.9826848338
	 C          -0.5915931331        1.3067511375        0.0683849855
	 H          -0.4555036000       -2.5300364065        1.2682415210
	 H           0.3182146563       -2.1089071557       -1.9128511994
	 C           0.5783543992       -1.3082983032       -0.0317714248
	 H           4.0131238327       -3.1851940823        1.1756857785
	 H           3.7308717583       -0.0524324100        2.2496643666
	 H           4.5190747455       -0.6909882591       -0.9299905248
	 C           3.3670930842       -1.3031820234        0.6587878451
	            -0.0000089656       -0.0000011203       -0.0000039788
	            -0.0000153774        0.0000042816       -0.0000019135
	             0.0000065588       -0.0000007601       -0.0000037739
	             0.0000005084        0.0000083637        0.0000304829
	             0.0000090864       -0.0000053129       -0.0000055705
	            -0.0000082865        0.0000034402       -0.0000133460
	            -0.0004885169       -0.0002810424        0.0019545410
	             0.0000102116        0.0000049955       -0.0000152379
	            -0.0000040204       -0.0000004176       -0.0000172855
	             0.0007377453       -0.0002943155       -0.0029195894
	             0.0000080191        0.0000071731        0.0000025747
	             0.0000137751        0.0000078423        0.0000117564
	             0.0002128876       -0.0026619116       -0.0008686117
	            -0.0004736257        0.0032087842        0.0018499522

	---Fragment 1 Intrafragment Coordinates---
	 - Coordinate -           - BOHR/RAD -       - ANG/DEG -
	 R(1,4)           =         2.057234	       1.088641
	 R(2,4)           =         2.055093	       1.087508
	 R(3,4)           =         2.056902	       1.088465
	 R(4,7)           =         2.866384	       1.516825
	 R(5,7)           =         2.062652	       1.091509
	 R(6,7)           =         2.061354	       1.090822
	 R(7,10)          =         2.866582	       1.516930
	 R(8,10)          =         2.061926	       1.091124
	 R(9,10)          =         2.060851	       1.090556
	 R(10,14)         =         2.872971	       1.520311
	 R(11,14)         =         2.055847	       1.087908
	 R(12,14)         =         2.056112	       1.088048
	 R(13,14)         =         2.055738	       1.087850
	 B(1,4,2)         =         1.884159	     107.954341
	 B(1,4,3)         =         1.879606	     107.693474
	 B(1,4,7)         =         1.931331	     110.657100
	 B(2,4,3)         =         1.884333	     107.964329
	 B(2,4,7)         =         1.949555	     111.701291
	 B(3,4,7)         =         1.932437	     110.720505
	 B(4,7,5)         =         1.915959	     109.776342
	 B(4,7,6)         =         1.916245	     109.792723
	 B(4,7,10)        =         1.965801	     112.632090
	 B(5,7,6)         =         1.858366	     106.476542
	 B(5,7,10)        =         1.906951	     109.260249
	 B(6,7,10)        =         1.897323	     108.708583
	 B(7,10,8)        =         1.890055	     108.292160
	 B(7,10,9)        =         1.912157	     109.558522
	 B(7,10,14)       =         1.967245	     112.714815
	 B(8,10,9)        =         1.856683	     106.380126
	 B(8,10,14)       =         1.913689	     109.646294
	 B(9,10,14)       =         1.920497	     110.036395
	 B(10,14,11)      =         1.943174	     111.335689
	 B(10,14,12)      =         1.937777	     111.026432
	 B(10,14,13)      =         1.937681	     111.020929
	 B(11,14,12)      =         1.882559	     107.862686
	 B(11,14,13)      =         1.865902	     106.908313
	 B(12,14,13)      =         1.894079	     108.522734
	 D(1,4,7,5)       =        -3.127022	    -179.165136
	 D(1,4,7,6)       =        -1.089774	     -62.439477
	 D(1,4,7,10)      =         1.027140	      58.850779
	 D(2,4,7,5)       =        -1.027294	     -58.859594
	 D(2,4,7,6)       =         1.009953	      57.866064
	 D(2,4,7,10)      =         3.126868	     179.156320
	 D(3,4,7,5)       =         1.073410	      61.501858
	 D(3,4,7,6)       =         3.110657	     178.227517
	 D(3,4,7,10)      =        -1.055614	     -60.482227
	 D(4,7,10,8)      =        -1.050457	     -60.186774
	 D(4,7,10,9)      =         0.967763	      55.448739
	 D(4,7,10,14)     =         3.112433	     178.329253
	 D(5,7,10,8)      =         3.098620	     177.537838
	 D(5,7,10,9)      =        -1.166345	     -66.826649
	 D(5,7,10,14)     =         0.978325	      56.053865
	 D(6,7,10,8)      =         1.077199	      61.718969
	 D(6,7,10,9)      =         3.095420	     177.354481
	 D(6,7,10,14)     =        -1.043096	     -59.765005
	 D(7,10,14,11)    =         2.816057	     161.348193
	 D(7,10,14,12)    =         0.718262	      41.153394
	 D(7,10,14,13)    =        -1.390422	     -79.665320
	 D(8,10,14,11)    =         0.709230	      40.635890
	 D(8,10,14,12)    =        -1.388565	     -79.558910
	 D(8,10,14,13)    =         2.785936	     159.622377
	 D(9,10,14,11)    =        -1.327127	     -76.038763
	 D(9,10,14,12)    =         2.858264	     163.766437
	 D(9,10,14,13)    =         0.749579	      42.947724

	Current energy   :      -158.1599992713

	Energy change for the previous step:
		Projected    :        -0.0000022920
		Actual       :         0.0000009071

	Performing BFGS update.
	Previous computed or guess Hessian on step 1.
	Steps to be used in Hessian update: 5 4
	Adding user-defined constraint: Fragment 1; Coordinate 58:
		Value =    -1.390422; Fixed value    =    -1.396260
		Force =    -0.003649; Force constant =     0.625000
	Removing off-diagonal coupling between coordinate 58 and others.
	Taking RFO optimization step.
	Going to follow RFO solution 1.
	Using RFO vector 1.
	Norm of target step-size    0.01019
	Projected energy change by RFO approximation:         0.0000003851

	Back-transformation to cartesian coordinates...
	Could not converge backtransformation.
	Using first guess instead.

	--- Internal Coordinate Step in ANG or DEG, aJ/ANG or AJ/DEG ---
	 ---------------------------------------------------------------------------
	   Coordinate                Previous        Force       Change         New 
	   ----------                --------       ------       ------       ------
	    1 R(1,4)          =      1.088641    -0.000025     0.000094     1.088735
	    2 R(2,4)          =      1.087508    -0.000082     0.000042     1.087550
	    3 R(3,4)          =      1.088465    -0.000025     0.000111     1.088577
	    4 R(4,7)          =      1.516825    -0.000092    -0.000069     1.516756
	    5 R(5,7)          =      1.091509    -0.000039     0.000067     1.091576
	    6 R(6,7)          =      1.090822     0.000098     0.000044     1.090865
	    7 R(7,10)         =      1.516930    -0.000216    -0.000101     1.516829
	    8 R(8,10)         =      1.091124     0.000146     0.000054     1.091179
	    9 R(9,10)         =      1.090556    -0.000136     0.000106     1.090662
	   10 R(10,14)        =      1.520311    -0.000069    -0.000037     1.520274
	   11 R(11,14)        =      1.087908     0.000028     0.000008     1.087916
	   12 R(12,14)        =      1.088048    -0.000134     0.000087     1.088135
	   13 R(13,14)        =      1.087850     0.000017     0.000082     1.087931
	   14 B(1,4,2)        =    107.954341     0.000001     0.000348   107.954689
	   15 B(1,4,3)        =    107.693474     0.000000    -0.002746   107.690728
	   16 B(1,4,7)        =    110.657100    -0.000001     0.000674   110.657775
	   17 B(2,4,3)        =    107.964329     0.000000    -0.006489   107.957840
	   18 B(2,4,7)        =    111.701291    -0.000001    -0.011472   111.689819
	   19 B(3,4,7)        =    110.720505     0.000001     0.019359   110.739864
	   20 B(4,7,5)        =    109.776342    -0.000000    -0.011387   109.764955
	   21 B(4,7,6)        =    109.792723     0.000001     0.015986   109.808708
	   22 B(4,7,10)       =    112.632090    -0.000001    -0.014058   112.618032
	   23 B(5,7,6)        =    106.476542    -0.000000     0.006931   106.483474
	   24 B(5,7,10)       =    109.260249     0.000001    -0.005653   109.254596
	   25 B(6,7,10)       =    108.708583    -0.000000     0.009487   108.718070
	   26 B(7,10,8)       =    108.292160    -0.000003     0.007933   108.300093
	   27 B(7,10,9)       =    109.558522     0.000004    -0.014797   109.543725
	   28 B(7,10,14)      =    112.714815    -0.000001    -0.000745   112.714069
	   29 B(8,10,9)       =    106.380126    -0.000000     0.006496   106.386622
	   30 B(8,10,14)      =    109.646294     0.000001     0.018411   109.664705
	   31 B(9,10,14)      =    110.036395    -0.000000    -0.016409   110.019986
	   32 B(10,14,11)     =    111.335689    -0.000003    -0.007766   111.327924
	   33 B(10,14,12)     =    111.026432     0.000000     0.003115   111.029547
	   34 B(10,14,13)     =    111.020929     0.000001     0.014835   111.035764
	   35 B(11,14,12)     =    107.862686     0.000001    -0.001974   107.860712
	   36 B(11,14,13)     =    106.908313    -0.000003     0.001056   106.909368
	   37 B(12,14,13)     =    108.522734     0.000003    -0.009907   108.512827
	   38 D(1,4,7,5)      =   -179.165136     0.000000     0.133335  -179.031801
	   39 D(1,4,7,6)      =    -62.439477     0.000000     0.144420   -62.295057
	   40 D(1,4,7,10)     =     58.850779     0.000000     0.158339    59.009118
	   41 D(2,4,7,5)      =    -58.859594    -0.000000     0.126557   -58.733037
	   42 D(2,4,7,6)      =     57.866064     0.000000     0.137643    58.003708
	   43 D(2,4,7,10)     =    179.156320    -0.000000     0.151562   179.307882
	   44 D(3,4,7,5)      =     61.501858     0.000000     0.123837    61.625696
	   45 D(3,4,7,6)      =    178.227517     0.000000     0.134923   178.362440
	   46 D(3,4,7,10)     =    -60.482227    -0.000000     0.148842   -60.333385
	   47 D(4,7,10,8)     =    -60.186774    -0.000000    -0.134986   -60.321760
	   48 D(4,7,10,9)     =     55.448739    -0.000000    -0.130825    55.317914
	   49 D(4,7,10,14)    =    178.329253     0.000000    -0.163226   178.166027
	   50 D(5,7,10,8)     =    177.537838    -0.000000    -0.106906   177.430933
	   51 D(5,7,10,9)     =    -66.826649    -0.000000    -0.102744   -66.929394
	   52 D(5,7,10,14)    =     56.053865     0.000000    -0.135145    55.918720
	   53 D(6,7,10,8)     =     61.718969    -0.000000    -0.117318    61.601650
	   54 D(6,7,10,9)     =    177.354481    -0.000000    -0.113157   177.241324
	   55 D(6,7,10,14)    =    -59.765005     0.000000    -0.145558   -59.910563
	   56 D(7,10,14,11)   =    161.348193    -0.000001    -0.016915   161.331278
	   57 D(7,10,14,12)   =     41.153394    -0.000001    -0.011301    41.142093
	   58 D(7,10,14,13)   =    -79.665320    -0.000002    -0.010897   -79.676217
	   59 D(8,10,14,11)   =     40.635890     0.000000    -0.039380    40.596510
	   60 D(8,10,14,12)   =    -79.558910     0.000000    -0.033765   -79.592675
	   61 D(8,10,14,13)   =    159.622377    -0.000001    -0.033362   159.589015
	   62 D(9,10,14,11)   =    -76.038763     0.000000    -0.048513   -76.087277
	   63 D(9,10,14,12)   =    163.766437     0.000000    -0.042899   163.723538
	   64 D(9,10,14,13)   =     42.947724    -0.000001    -0.042495    42.905228
	 ---------------------------------------------------------------------------
	Successfully symmetrized geometry.
	 Forces used to impose fixed constraints are not included.
	  Forces zeroed: 58 

  ==> Convergence Check <==

  Measures of convergence in internal coordinates in au.
  Criteria marked as inactive (o), active & met (*), and active & unmet ( ).
  ---------------------------------------------------------------------------------------------
   Step     Total Energy     Delta E     MAX Force     RMS Force      MAX Disp      RMS Disp   
  ---------------------------------------------------------------------------------------------
    Convergence Criteria    1.00e-06 *    3.00e-04 *             o    1.20e-03 *             o
  ---------------------------------------------------------------------------------------------
      6    -158.15999927    9.07e-07 *    5.69e-05 *    1.97e-05 o    2.85e-03      1.27e-03 o  ~
  ---------------------------------------------------------------------------------------------


  **** Optimization is complete! (in 6 steps) ****

  ==> Optimization Summary <==

  Measures of convergence in internal coordinates in au.
  --------------------------------------------------------------------------------------------------------------- ~
   Step         Total Energy             Delta E       MAX Force       RMS Force        MAX Disp        RMS Disp  ~
  --------------------------------------------------------------------------------------------------------------- ~
      1    -158.155700043744   -158.155700043744      0.01286710      0.00560959      0.02530993      0.01250522  ~
      2    -158.158741357445     -0.003041313701      0.00492798      0.00226532      0.03112338      0.01252280  ~
      3    -158.159758252554     -0.001016895109      0.00163333      0.00062415      0.04509100      0.01252093  ~
      4    -158.159983038263     -0.000224785709      0.00069646      0.00017031      0.02840602      0.00885460  ~
      5    -158.160000178414     -0.000017140151      0.00013267      0.00004591      0.00373109      0.00145958  ~
      6    -158.159999271319      0.000000907095      0.00010927      0.00002393      0.00284883      0.00127428  ~
  --------------------------------------------------------------------------------------------------------------- ~

	Writing optimization data to binary file.
	Final energy is   -158.1599992713190
	Final (previous) structure:
	Cartesian Geometry (in Angstrom)
	    H    -2.3535244149   0.0379296187   0.2817348400
	    H    -2.2073644899   1.6889576768  -0.3102599077
	    H    -1.8928715619   0.3340695684  -1.3886745195
	    C    -1.7751056036   0.6927045150  -0.3677586089
	    H     0.2503169556   1.3631342427  -0.6141287047
	    H    -0.2094058236   1.0826183540   1.0491916259
	    C    -0.3130576028   0.6915029192   0.0361877757
	    H    -0.2410421236  -1.3388376032   0.6711245079
	    H     0.1683919436  -1.1159856018  -1.0122372582
	    C     0.3060519666  -0.6923216441  -0.0168127139
	    H     2.1236536675  -1.6855321133   0.6221461185
	    H     1.9742923027  -0.0277460364   1.1904711098
	    H     2.3913913592  -0.3656552381  -0.4921297899
	    C     1.7817889194  -0.6896142254   0.3486155129
	Saving final (previous) structure.
			--------------------------
			 OPTKING Finished Execution 
			--------------------------

    Final optimized geometry and variables:
    Molecular point group: c1
    Full point group: C1

    Geometry (in Angstrom), charge = 0, multiplicity = 1:

    H           -2.353524414869     0.037929618670     0.281734840023
    H           -2.207364489943     1.688957676765    -0.310259907694
    H           -1.892871561868     0.334069568374    -1.388674519452
    C           -1.775105603636     0.692704515026    -0.367758608906
    H            0.250316955626     1.363134242742    -0.614128704745
    H           -0.209405823585     1.082618354050     1.049191625862
    C           -0.313057602783     0.691502919247     0.036187775746
    H           -0.241042123566    -1.338837603235     0.671124507912
    H            0.168391943560    -1.115985601829    -1.012237258156
    C            0.306051966552    -0.692321644093    -0.016812713896
    H            2.123653667527    -1.685532113284     0.622146118458
    H            1.974292302686    -0.027746036383     1.190471109756
    H            2.391391359233    -0.365655238106    -0.492129789903
    C            1.781788919381    -0.689614225438     0.348615512932

	Cleaning optimization helper files.

*** Psi4 exiting successfully. Buy a developer a beer!
