
    -----------------------------------------------------------------------
          Psi4: An Open-Source Ab Initio Electronic Structure Package
                               Psi4 1.1 release

                         Git: Rev {HEAD} add49b9 


    R. M. Parrish, L. A. Burns, D. G. A. Smith, A. C. Simmonett,
    A. E. DePrince III, E. G. Hohenstein, U. Bozkaya, A. Yu. Sokolov,
    R. Di Remigio, R. M. Richard, J. F. Gonthier, A. M. James,
    H. R. McAlexander, A. Kumar, M. Saitow, X. Wang, B. P. Pritchard,
    P. Verma, H. F. Schaefer III, K. Patkowski, R. A. King, E. F. Valeev,
    F. A. Evangelista, J. M. Turney, T. D. Crawford, and C. D. Sherrill,
    J. Chem. Theory Comput. in press (2017).
    (doi: 10.1021/acs.jctc.7b00174)

    -----------------------------------------------------------------------


    Psi4 started on: Wednesday, 14 June 2017 02:24PM

    Process ID:   7104
    PSIDATADIR: /cbio/jclab/home/chayas/anaconda/envs/py35/share/psi4
    Memory:     500.0 MiB
    Threads:    1
    
  ==> Input File <==

--------------------------------------------------------------------------

memory 1000 mb

molecule butane {
  symmetry C1
  0 1 
  H      5.132   2.255   -9.825
  H      4.348   3.426   -8.790
  H      5.533   2.327   -8.126
  C      4.747   2.434   -8.843
  H      3.246   1.594   -7.554
  H      2.843   1.523   -9.253
  C      3.631   1.416   -8.537
  H      3.665   -0.647   -7.940
  H      4.104   -0.384   -9.610
  C      4.203   -0.012   -8.612
  H      6.088   -0.983   -8.270
  H      5.791   0.381   -7.220
  H      6.230   0.644   -8.890
  C      5.691   0.009   -8.218
  units Angstrom
}

dih_string = "14 10 7 4 30"
set optking fixed_dihedral = $dih_string

optimize('MP2/aug-cc-pvtz')
--------------------------------------------------------------------------

  Memory set to 953.674 MiB by Python driver.
gradient() will perform analytic gradient computation.

*** tstart() called on gpu-2-10.local
*** at Wed Jun 14 14:24:37 2017

    SCF Algorithm Type (re)set to DF.

*** tstart() called on gpu-2-10.local
*** at Wed Jun 14 14:24:37 2017

   => Loading Basis Set <=

    Name: AUG-CC-PVTZ
    Role: ORBITAL
    Keyword: BASIS
    atoms 1-3, 5-6, 8-9, 11-13 entry H          line    34 file /cbio/jclab/home/chayas/anaconda/envs/py35/share/psi4/basis/aug-cc-pvtz.gbs 
    atoms 4, 7, 10, 14         entry C          line   221 file /cbio/jclab/home/chayas/anaconda/envs/py35/share/psi4/basis/aug-cc-pvtz.gbs 


         ---------------------------------------------------------
                                   SCF
            by Justin Turney, Rob Parrish, and Andy Simmonett
                              RHF Reference
                        1 Threads,    953 MiB Core
         ---------------------------------------------------------

  ==> Geometry <==

    Molecular point group: c1
    Full point group: C1

    Geometry (in Angstrom), charge = 0, multiplicity = 1:

       Center              X                  Y                   Z               Mass       
    ------------   -----------------  -----------------  -----------------  -----------------
           H          0.541441253232     1.284252530616    -1.273315585460     1.007825032070
           H         -0.242558746768     2.455252530616    -0.238315585460     1.007825032070
           H          0.942441253232     1.356252530616     0.425684414540     1.007825032070
           C          0.156441253232     1.463252530616    -0.291315585460    12.000000000000
           H         -1.344558746768     0.623252530616     0.997684414540     1.007825032070
           H         -1.747558746768     0.552252530616    -0.701315585460     1.007825032070
           C         -0.959558746768     0.445252530616     0.014684414540    12.000000000000
           H         -0.925558746768    -1.617747469384     0.611684414540     1.007825032070
           H         -0.486558746768    -1.354747469384    -1.058315585460     1.007825032070
           C         -0.387558746768    -0.982747469384    -0.060315585460    12.000000000000
           H          1.497441253232    -1.953747469384     0.281684414540     1.007825032070
           H          1.200441253232    -0.589747469384     1.331684414540     1.007825032070
           H          1.639441253232    -0.326747469384    -0.338315585460     1.007825032070
           C          1.100441253232    -0.961747469384     0.333684414540    12.000000000000

  Running in c1 symmetry.

  Rotational constants: A =      0.38634  B =      0.20046  C =      0.14894 [cm^-1]
  Rotational constants: A =  11582.12440  B =   6009.76730  C =   4465.12413 [MHz]
  Nuclear repulsion =  136.003698425264417

  Charge       = 0
  Multiplicity = 1
  Electrons    = 34
  Nalpha       = 17
  Nbeta        = 17

  ==> Algorithm <==

  SCF Algorithm Type is DF.
  DIIS enabled.
  MOM disabled.
  Fractional occupation disabled.
  Guess Type is SAD.
  Energy threshold   = 1.00e-10
  Density threshold  = 1.00e-10
  Integral threshold = 0.00e+00

  ==> Primary Basis <==

  Basis Set: AUG-CC-PVTZ
    Blend: AUG-CC-PVTZ
    Number of shells: 146
    Number of basis function: 414
    Number of Cartesian functions: 470
    Spherical Harmonics?: true
    Max angular momentum: 3

   => Loading Basis Set <=

    Name: (AUG-CC-PVTZ AUX)
    Role: JKFIT
    Keyword: DF_BASIS_SCF
    atoms 1-3, 5-6, 8-9, 11-13 entry H          line    69 file /cbio/jclab/home/chayas/anaconda/envs/py35/share/psi4/basis/aug-cc-pvtz-jkfit.gbs 
    atoms 4, 7, 10, 14         entry C          line   161 file /cbio/jclab/home/chayas/anaconda/envs/py35/share/psi4/basis/aug-cc-pvtz-jkfit.gbs 

  ==> Pre-Iterations <==

   -------------------------------------------------------
    Irrep   Nso     Nmo     Nalpha   Nbeta   Ndocc  Nsocc
   -------------------------------------------------------
     A        414     414       0       0       0       0
   -------------------------------------------------------
    Total     414     414      17      17      17       0
   -------------------------------------------------------

  ==> Integral Setup <==

  ==> DFJK: Density-Fitted J/K Matrices <==

    J tasked:                  Yes
    K tasked:                  Yes
    wK tasked:                  No
    OpenMP threads:              1
    Integrals threads:           1
    Memory (MB):               715
    Algorithm:                Core
    Integral Cache:           NONE
    Schwarz Cutoff:          1E-12
    Fitting Condition:       1E-12

   => Auxiliary Basis Set <=

  Basis Set: (AUG-CC-PVTZ AUX)
    Blend: AUG-CC-PVTZ-JKFIT
    Number of shells: 260
    Number of basis function: 876
    Number of Cartesian functions: 1074
    Spherical Harmonics?: true
    Max angular momentum: 4

  Minimum eigenvalue in the overlap matrix is 4.6403618323E-06.
  Using Symmetric Orthogonalization.

  SCF Guess: Superposition of Atomic Densities via on-the-fly atomic UHF.

  ==> Iterations <==

                           Total Energy        Delta E     RMS |[F,P]|

   @DF-RHF iter   0:  -159.01669818617538   -1.59017e+02   9.50160e-03 
   @DF-RHF iter   1:  -157.22318446037949    1.79351e+00   9.54035e-04 
   @DF-RHF iter   2:  -157.32630370803733   -1.03119e-01   3.13732e-04 DIIS
   @DF-RHF iter   3:  -157.33744711267585   -1.11434e-02   1.27501e-04 DIIS
   @DF-RHF iter   4:  -157.33954337441759   -2.09626e-03   2.27747e-05 DIIS
   @DF-RHF iter   5:  -157.33964064087203   -9.72665e-05   4.76643e-06 DIIS
   @DF-RHF iter   6:  -157.33964575318186   -5.11231e-06   1.02362e-06 DIIS
   @DF-RHF iter   7:  -157.33964598405933   -2.30877e-07   2.41673e-07 DIIS
   @DF-RHF iter   8:  -157.33964599583194   -1.17726e-08   7.49870e-08 DIIS
   @DF-RHF iter   9:  -157.33964599669957   -8.67630e-10   1.92840e-08 DIIS
   @DF-RHF iter  10:  -157.33964599677742   -7.78471e-11   3.68957e-09 DIIS
   @DF-RHF iter  11:  -157.33964599677878   -1.36424e-12   1.06689e-09 DIIS
   @DF-RHF iter  12:  -157.33964599677893   -1.42109e-13   2.64662e-10 DIIS
   @DF-RHF iter  13:  -157.33964599677981   -8.81073e-13   4.75188e-11 DIIS

  ==> Post-Iterations <==

    Orbital Energies (a.u.)
    -----------------------

    Doubly Occupied:                                                      

       1A    -11.206345     2A    -11.205707     3A    -11.197175  
       4A    -11.197019     5A     -1.076237     6A     -0.968144  
       7A     -0.886405     8A     -0.773486     9A     -0.643539  
      10A     -0.627896    11A     -0.570219    12A     -0.539674  
      13A     -0.527809    14A     -0.509233    15A     -0.462658  
      16A     -0.454747    17A     -0.452485  

    Virtual:                                                              

      18A      0.031684    19A      0.038118    20A      0.039972  
      21A      0.040070    22A      0.058237    23A      0.059604  
      24A      0.061589    25A      0.062361    26A      0.064358  
      27A      0.088086    28A      0.117638    29A      0.121823  
      30A      0.124676    31A      0.125559    32A      0.128296  
      33A      0.133003    34A      0.137979    35A      0.140836  
      36A      0.143251    37A      0.149685    38A      0.162387  
      39A      0.165280    40A      0.173764    41A      0.191978  
      42A      0.195068    43A      0.214255    44A      0.235297  
      45A      0.248045    46A      0.267435    47A      0.279664  
      48A      0.289476    49A      0.292672    50A      0.306816  
      51A      0.309494    52A      0.314185    53A      0.315359  
      54A      0.323258    55A      0.327863    56A      0.328215  
      57A      0.335837    58A      0.347810    59A      0.352812  
      60A      0.355890    61A      0.356360    62A      0.362824  
      63A      0.373005    64A      0.379562    65A      0.386550  
      66A      0.398147    67A      0.412794    68A      0.417889  
      69A      0.420666    70A      0.426351    71A      0.439796  
      72A      0.442091    73A      0.450700    74A      0.456388  
      75A      0.462433    76A      0.464296    77A      0.471420  
      78A      0.473774    79A      0.479279    80A      0.483904  
      81A      0.488202    82A      0.492321    83A      0.497800  
      84A      0.509382    85A      0.514142    86A      0.539591  
      87A      0.542612    88A      0.551096    89A      0.561197  
      90A      0.564724    91A      0.565658    92A      0.573584  
      93A      0.576249    94A      0.588904    95A      0.591672  
      96A      0.604667    97A      0.612325    98A      0.617851  
      99A      0.630923   100A      0.636358   101A      0.647831  
     102A      0.667432   103A      0.670298   104A      0.676953  
     105A      0.693121   106A      0.698819   107A      0.744445  
     108A      0.788087   109A      0.796863   110A      0.805238  
     111A      0.819992   112A      0.827903   113A      0.836144  
     114A      0.840534   115A      0.846861   116A      0.867565  
     117A      0.870655   118A      0.871619   119A      0.878809  
     120A      0.897316   121A      0.899432   122A      0.909177  
     123A      0.919528   124A      0.927685   125A      0.930044  
     126A      0.945989   127A      0.948775   128A      0.958375  
     129A      0.966827   130A      0.982067   131A      0.984936  
     132A      0.997201   133A      0.999675   134A      1.006182  
     135A      1.019829   136A      1.021691   137A      1.037905  
     138A      1.058143   139A      1.071419   140A      1.090516  
     141A      1.090645   142A      1.094587   143A      1.105119  
     144A      1.116726   145A      1.118393   146A      1.130905  
     147A      1.132566   148A      1.149056   149A      1.164027  
     150A      1.164236   151A      1.168135   152A      1.183919  
     153A      1.195062   154A      1.208382   155A      1.215304  
     156A      1.230429   157A      1.244030   158A      1.248062  
     159A      1.249822   160A      1.271250   161A      1.275331  
     162A      1.284607   163A      1.306591   164A      1.317512  
     165A      1.331939   166A      1.350436   167A      1.371050  
     168A      1.376232   169A      1.385328   170A      1.390284  
     171A      1.413986   172A      1.427083   173A      1.431226  
     174A      1.452760   175A      1.468846   176A      1.472065  
     177A      1.484151   178A      1.500029   179A      1.517201  
     180A      1.521557   181A      1.527534   182A      1.568536  
     183A      1.575760   184A      1.580804   185A      1.581496  
     186A      1.597734   187A      1.614300   188A      1.631287  
     189A      1.633263   190A      1.663989   191A      1.680263  
     192A      1.681719   193A      1.689617   194A      1.694065  
     195A      1.699969   196A      1.700137   197A      1.727837  
     198A      1.730353   199A      1.756395   200A      1.763002  
     201A      1.775230   202A      1.782889   203A      1.793970  
     204A      1.807015   205A      1.823024   206A      1.833863  
     207A      1.836793   208A      1.846817   209A      1.850976  
     210A      1.861679   211A      1.883972   212A      1.900154  
     213A      1.923711   214A      1.938884   215A      1.940146  
     216A      1.941544   217A      1.979311   218A      1.981091  
     219A      2.010171   220A      2.017718   221A      2.030443  
     222A      2.048961   223A      2.050686   224A      2.070734  
     225A      2.071117   226A      2.083691   227A      2.103977  
     228A      2.135075   229A      2.143669   230A      2.163576  
     231A      2.177703   232A      2.184010   233A      2.193773  
     234A      2.225406   235A      2.226749   236A      2.268434  
     237A      2.276040   238A      2.299881   239A      2.318460  
     240A      2.321436   241A      2.363034   242A      2.375143  
     243A      2.380199   244A      2.414312   245A      2.442114  
     246A      2.450289   247A      2.464707   248A      2.479132  
     249A      2.496994   250A      2.500738   251A      2.525677  
     252A      2.528873   253A      2.584106   254A      2.587410  
     255A      2.601489   256A      2.678200   257A      2.827285  
     258A      2.865317   259A      2.965612   260A      3.071930  
     261A      3.258337   262A      3.307764   263A      3.308282  
     264A      3.368501   265A      3.394738   266A      3.440244  
     267A      3.443417   268A      3.510813   269A      3.513985  
     270A      3.539232   271A      3.555870   272A      3.570953  
     273A      3.584619   274A      3.604843   275A      3.605293  
     276A      3.653601   277A      3.662332   278A      3.680312  
     279A      3.687732   280A      3.714326   281A      3.716432  
     282A      3.731492   283A      3.766685   284A      3.775063  
     285A      3.776877   286A      3.807040   287A      3.810739  
     288A      3.821269   289A      3.841082   290A      3.864659  
     291A      3.876066   292A      3.889239   293A      3.900129  
     294A      3.917561   295A      3.921288   296A      3.964128  
     297A      3.986103   298A      3.996611   299A      4.009545  
     300A      4.019302   301A      4.028707   302A      4.058291  
     303A      4.058616   304A      4.060137   305A      4.074573  
     306A      4.086067   307A      4.113341   308A      4.128784  
     309A      4.159575   310A      4.162349   311A      4.181932  
     312A      4.210227   313A      4.258570   314A      4.263946  
     315A      4.306866   316A      4.307894   317A      4.313293  
     318A      4.330074   319A      4.359764   320A      4.364462  
     321A      4.369695   322A      4.384280   323A      4.415636  
     324A      4.458748   325A      4.477676   326A      4.492435  
     327A      4.497231   328A      4.560377   329A      4.572925  
     330A      4.617944   331A      4.641280   332A      4.674799  
     333A      4.675388   334A      4.721108   335A      4.723522  
     336A      4.761418   337A      4.774851   338A      4.792209  
     339A      4.823674   340A      4.836071   341A      4.841516  
     342A      4.897707   343A      4.905939   344A      4.929322  
     345A      4.945675   346A      4.965794   347A      4.979054  
     348A      4.992307   349A      5.019046   350A      5.051546  
     351A      5.053671   352A      5.074639   353A      5.098361  
     354A      5.110392   355A      5.138275   356A      5.158324  
     357A      5.174016   358A      5.207566   359A      5.221340  
     360A      5.234237   361A      5.248167   362A      5.327645  
     363A      5.330246   364A      5.363168   365A      5.372548  
     366A      5.391374   367A      5.416746   368A      5.428881  
     369A      5.432032   370A      5.462980   371A      5.469942  
     372A      5.518269   373A      5.551850   374A      5.560468  
     375A      5.577567   376A      5.608451   377A      5.638071  
     378A      5.710227   379A      5.713588   380A      5.740338  
     381A      5.744359   382A      5.763537   383A      5.778231  
     384A      5.832097   385A      5.867283   386A      5.892946  
     387A      5.910628   388A      5.966378   389A      5.999209  
     390A      6.046563   391A      6.119914   392A      6.147428  
     393A      6.171698   394A      6.209387   395A      6.230047  
     396A      6.287746   397A      6.313019   398A      6.355162  
     399A      6.361116   400A      6.396106   401A      6.454785  
     402A      6.497250   403A      6.613905   404A      6.621519  
     405A      6.769707   406A      6.810106   407A      6.896428  
     408A      6.940542   409A      6.962558   410A      7.000557  
     411A     18.165986   412A     18.381403   413A     19.451029  
     414A     19.488769  

    Final Occupation by Irrep:
              A 
    DOCC [    17 ]

  Energy converged.

  @DF-RHF Final Energy:  -157.33964599677981

   => Energetics <=

    Nuclear Repulsion Energy =            136.0036984252644174
    One-Electron Energy =                -480.0891357198046308
    Two-Electron Energy =                 186.7457912977604053
    DFT Exchange-Correlation Energy =       0.0000000000000000
    Empirical Dispersion Energy =           0.0000000000000000
    PCM Polarization Energy =               0.0000000000000000
    EFP Energy =                            0.0000000000000000
    Total Energy =                       -157.3396459967798080



Properties will be evaluated at   0.000000,   0.000000,   0.000000 Bohr

Properties computed using the SCF density matrix

  Nuclear Dipole Moment: (a.u.)
     X:     1.0072      Y:     0.4017      Z:     0.0364

  Electronic Dipole Moment: (a.u.)
     X:    -1.0357      Y:    -0.4139      Z:    -0.0373

  Dipole Moment: (a.u.)
     X:    -0.0284      Y:    -0.0122      Z:    -0.0009     Total:     0.0310

  Dipole Moment: (Debye)
     X:    -0.0723      Y:    -0.0309      Z:    -0.0022     Total:     0.0787


*** tstop() called on gpu-2-10.local at Wed Jun 14 14:26:13 2017
Module time:
	user time   =      95.83 seconds =       1.60 minutes
	system time =       0.83 seconds =       0.01 minutes
	total time  =         96 seconds =       1.60 minutes
Total time:
	user time   =      95.84 seconds =       1.60 minutes
	system time =       0.83 seconds =       0.01 minutes
	total time  =         96 seconds =       1.60 minutes

  //>>>>>>>>>>>>>>>>>>>>>>>>>>>>>>>>>>>//
  //               DFMP2               //
  //<<<<<<<<<<<<<<<<<<<<<<<<<<<<<<<<<<<//

   => Loading Basis Set <=

    Name: (AUG-CC-PVTZ AUX)
    Role: RIFIT
    Keyword: DF_BASIS_MP2
    atoms 1-3, 5-6, 8-9, 11-13 entry H          line    29 file /cbio/jclab/home/chayas/anaconda/envs/py35/share/psi4/basis/aug-cc-pvtz-ri.gbs 
    atoms 4, 7, 10, 14         entry C          line   147 file /cbio/jclab/home/chayas/anaconda/envs/py35/share/psi4/basis/aug-cc-pvtz-ri.gbs 

	 --------------------------------------------------------
	                          DF-MP2                         
	      2nd-Order Density-Fitted Moller-Plesset Theory     
	              RMP2 Wavefunction,   1 Threads             
	                                                         
	        Rob Parrish, Justin Turney, Andy Simmonett,      
	           Ed Hohenstein, and C. David Sherrill          
	 --------------------------------------------------------

   => Auxiliary Basis Set <=

  Basis Set: (AUG-CC-PVTZ AUX)
    Blend: AUG-CC-PVTZ-RI
    Number of shells: 252
    Number of basis function: 884
    Number of Cartesian functions: 1094
    Spherical Harmonics?: true
    Max angular momentum: 4

	 --------------------------------------------------------
	                 NBF =   414, NAUX =   884
	 --------------------------------------------------------
	   CLASS    FOCC     OCC    AOCC    AVIR     VIR    FVIR
	   PAIRS       0      17      17     397     397       0
	 --------------------------------------------------------


         ------------------------------------------------------------
                                     CPHF                           
                                  Rob Parrish                       
         ------------------------------------------------------------

  ==> Geometry <==

    Molecular point group: c1
    Full point group: C1

    Geometry (in Angstrom), charge = 0, multiplicity = 1:

       Center              X                  Y                   Z               Mass       
    ------------   -----------------  -----------------  -----------------  -----------------
           H          0.541441253232     1.284252530616    -1.273315585460     1.007825032070
           H         -0.242558746768     2.455252530616    -0.238315585460     1.007825032070
           H          0.942441253232     1.356252530616     0.425684414540     1.007825032070
           C          0.156441253232     1.463252530616    -0.291315585460    12.000000000000
           H         -1.344558746768     0.623252530616     0.997684414540     1.007825032070
           H         -1.747558746768     0.552252530616    -0.701315585460     1.007825032070
           C         -0.959558746768     0.445252530616     0.014684414540    12.000000000000
           H         -0.925558746768    -1.617747469384     0.611684414540     1.007825032070
           H         -0.486558746768    -1.354747469384    -1.058315585460     1.007825032070
           C         -0.387558746768    -0.982747469384    -0.060315585460    12.000000000000
           H          1.497441253232    -1.953747469384     0.281684414540     1.007825032070
           H          1.200441253232    -0.589747469384     1.331684414540     1.007825032070
           H          1.639441253232    -0.326747469384    -0.338315585460     1.007825032070
           C          1.100441253232    -0.961747469384     0.333684414540    12.000000000000

  Nuclear repulsion =  136.003698425264417
  Reference energy  = -157.339645996779808

  ==> Basis Set <==

  Basis Set: AUG-CC-PVTZ
    Blend: AUG-CC-PVTZ
    Number of shells: 146
    Number of basis function: 414
    Number of Cartesian functions: 470
    Spherical Harmonics?: true
    Max angular momentum: 3

  ==> CGRSolver (by Rob Parrish) <==

   Number of roots    =         1
   Preconditioning    =    JACOBI
   Convergence cutoff =     1E-06
   Maximum iterations =       100

  ==> CPHFRHamiltonian (by Rob Parrish) <== 

  ==> DFJK: Density-Fitted J/K Matrices <==

    J tasked:                  Yes
    K tasked:                  Yes
    wK tasked:                  No
    OpenMP threads:              1
    Integrals threads:           1
    Memory (MB):               715
    Algorithm:                Core
    Integral Cache:           NONE
    Schwarz Cutoff:          1E-12
    Fitting Condition:       1E-12

   => Auxiliary Basis Set <=

  Basis Set: (AUG-CC-PVTZ AUX)
    Blend: AUG-CC-PVTZ-JKFIT
    Number of shells: 260
    Number of basis function: 876
    Number of Cartesian functions: 1074
    Spherical Harmonics?: true
    Max angular momentum: 4

  ==> CPHF Iterations <==

  => Iterations <=

             Iter  Converged  Remaining    Residual
  CGR           1          0          1   8.670E-02
  CGR           2          0          1   1.372E-02
  CGR           3          0          1   3.198E-03
  CGR           4          0          1   7.669E-04
  CGR           5          0          1   1.779E-04
  CGR           6          0          1   3.083E-05
  CGR           7          0          1   5.664E-06
  CGR           8          0          1   1.286E-06
  CGR           9          1          0   1.828E-07

    CGRSolver converged.

  ==> DFCorrGrad: Density-Fitted Correlated Gradients <==

    OpenMP threads:              1
    Integrals threads:           1
    Memory (MB):               715
    Schwarz Cutoff:          0E+00
    Fitting Condition:       1E-12

   => Auxiliary Basis Set <=

  Basis Set: (AUG-CC-PVTZ AUX)
    Blend: AUG-CC-PVTZ-JKFIT
    Number of shells: 260
    Number of basis function: 876
    Number of Cartesian functions: 1074
    Spherical Harmonics?: true
    Max angular momentum: 4

	-----------------------------------------------------------
	 ==================> DF-MP2 Energies <==================== 
	-----------------------------------------------------------
	 Reference Energy          =    -157.3396459967798080 [Eh]
	 Singles Energy            =      -0.0000000000000001 [Eh]
	 Same-Spin Energy          =      -0.1671636393383125 [Eh]
	 Opposite-Spin Energy      =      -0.6415946477844040 [Eh]
	 Correlation Energy        =      -0.8087582871227166 [Eh]
	 Total Energy              =    -158.1484042839025221 [Eh]
	-----------------------------------------------------------
	 ================> DF-SCS-MP2 Energies <================== 
	-----------------------------------------------------------
	 SCS Same-Spin Scale       =       0.3333333333333333 [-]
	 SCS Opposite-Spin Scale   =       1.2000000000000000 [-]
	 SCS Same-Spin Energy      =      -0.0557212131127708 [Eh]
	 SCS Opposite-Spin Energy  =      -0.7699135773412847 [Eh]
	 SCS Correlation Energy    =      -0.8256347904540556 [Eh]
	 SCS Total Energy          =    -158.1652807872338542 [Eh]
	-----------------------------------------------------------


  -Total Gradient:
     Atom            X                  Y                   Z
    ------   -----------------  -----------------  -----------------
       1       -0.005897970896    -0.000777859486     0.010984895557
       2        0.002169506578    -0.012073630896     0.001009418757
       3       -0.006604721539    -0.005553958593    -0.004796403754
       4        0.026528719577     0.006775636149    -0.005885425321
       5        0.005590887903    -0.003312602263    -0.010450010318
       6        0.011408448313    -0.002729171637     0.005089801729
       7       -0.027799930010     0.003918847961     0.007142363076
       8        0.006901753908     0.010126459394    -0.004606417460
       9        0.001292445256     0.006186011232     0.011314803562
      10       -0.016596765929    -0.022136430392    -0.009024960962
      11       -0.006825022144     0.010863829979    -0.001054935274
      12       -0.004017326048    -0.003305134922    -0.011442376882
      13       -0.008498051139    -0.000217509342     0.003962919081
      14        0.022348026171     0.012235512816     0.007756328210


*** tstop() called on gpu-2-10.local at Wed Jun 14 14:32:55 2017
Module time:
	user time   =     493.12 seconds =       8.22 minutes
	system time =       4.13 seconds =       0.07 minutes
	total time  =        498 seconds =       8.30 minutes
Total time:
	user time   =     493.13 seconds =       8.22 minutes
	system time =       4.13 seconds =       0.07 minutes
	total time  =        498 seconds =       8.30 minutes

			-----------------------------------------
			 OPTKING 2.0: for geometry optimizations 
			  - R.A. King,  Bethel University        
			-----------------------------------------

	Internal coordinates to be generated automatically.
	Detected frag 1 with atoms:  1 2 3 4 5 6 7 8 9 10 11 12 13 14
	---Fragment 1 Bond Connectivity---
	 1 : 4
	 2 : 4
	 3 : 4
	 4 : 1 2 3 7
	 5 : 7
	 6 : 7
	 7 : 4 5 6 10
	 8 : 10
	 9 : 10
	 10 : 7 8 9 14
	 11 : 14
	 12 : 14
	 13 : 14
	 14 : 10 11 12 13

	Assuming in current code that numbering for constraints corresponds to unified fragment.
	Fixed dihedral atom list: 
	    14    10     7     4
	---Fragment 1 Geometry and Gradient---
	 H           1.0231756857        2.4268855683       -2.4062177373
	 H          -0.4583696025        4.6397548699       -0.4503511897
	 H           1.7809558649        2.5629458499        0.8044269625
	 C           0.2956311245        2.7651465461       -0.5505066748
	 H          -2.5408478010        1.1777765945        1.8853503105
	 H          -3.3024074325        1.0436060391       -1.3252943892
	 C          -1.8133032398        0.8414053428        0.0277495219
	 H          -1.7490525513       -3.0570996693        1.1559160232
	 H          -0.9194627790       -2.5601016964       -1.9999266187
	 C          -0.7323798918       -1.8571235749       -0.1139799381
	 H           2.8297538687       -3.6920476500        0.5323063994
	 H           2.2685052072       -1.1144612047        2.5165188389
	 H           3.0980949796       -0.6174632317       -0.6393238030
	 C           2.0795325939       -1.8174393261        0.6305721583
	            -0.0058979709       -0.0007778595        0.0109848956
	             0.0021695066       -0.0120736309        0.0010094188
	            -0.0066047215       -0.0055539586       -0.0047964038
	             0.0265287196        0.0067756361       -0.0058854253
	             0.0055908879       -0.0033126023       -0.0104500103
	             0.0114084483       -0.0027291716        0.0050898017
	            -0.0277999300        0.0039188480        0.0071423631
	             0.0069017539        0.0101264594       -0.0046064175
	             0.0012924453        0.0061860112        0.0113148036
	            -0.0165967659       -0.0221364304       -0.0090249610
	            -0.0068250221        0.0108638300       -0.0010549353
	            -0.0040173260       -0.0033051349       -0.0114423769
	            -0.0084980511       -0.0002175093        0.0039629191
	             0.0223480262        0.0122355128        0.0077563282

	Previous optimization step data not found.  Starting new optimization.

	---Fragment 1 Intrafragment Coordinates---
	 - Coordinate -           - BOHR/RAD -       - ANG/DEG -
	 R(1,4)           =         2.021733	       1.069855
	 R(2,4)           =         2.023043	       1.070548
	 R(3,4)           =         2.020624	       1.069268
	 R(4,7)           =         2.912519	       1.541238
	 R(5,7)           =         2.023153	       1.070606
	 R(6,7)           =         2.022139	       1.070070
	 R(7,10)          =         2.910419	       1.540128
	 R(8,10)          =         2.021436	       1.069698
	 R(9,10)          =         2.021379	       1.069668
	 R(10,14)         =         2.909087	       1.539422
	 R(11,14)         =         2.021545	       1.069756
	 R(12,14)         =         2.021555	       1.069761
	 R(13,14)         =         2.022387	       1.070201
	 B(1,4,2)         =         1.911978	     109.548269
	 B(1,4,3)         =         1.911570	     109.524905
	 B(1,4,7)         =         1.909537	     109.408432
	 B(2,4,3)         =         1.910809	     109.481269
	 B(2,4,7)         =         1.909582	     109.410969
	 B(3,4,7)         =         1.910322	     109.453362
	 B(4,7,5)         =         1.910141	     109.443015
	 B(4,7,6)         =         1.911689	     109.531731
	 B(4,7,10)        =         1.911155	     109.501110
	 B(5,7,6)         =         1.910196	     109.446161
	 B(5,7,10)        =         1.909672	     109.416149
	 B(6,7,10)        =         1.910945	     109.489072
	 B(7,10,8)        =         1.910303	     109.452301
	 B(7,10,9)        =         1.910824	     109.482155
	 B(7,10,14)       =         1.911213	     109.504437
	 B(8,10,9)        =         1.910417	     109.458846
	 B(8,10,14)       =         1.910766	     109.478806
	 B(9,10,14)       =         1.910276	     109.450772
	 B(10,14,11)      =         1.910943	     109.488965
	 B(10,14,12)      =         1.911204	     109.503926
	 B(10,14,13)      =         1.911557	     109.524173
	 B(11,14,12)      =         1.910410	     109.458432
	 B(11,14,13)      =         1.910054	     109.438058
	 B(12,14,13)      =         1.909629	     109.413709
	 D(1,4,7,5)       =         3.140593	     179.942714
	 D(1,4,7,6)       =        -1.048388	     -60.068215
	 D(1,4,7,10)      =         1.047357	      60.009130
	 D(2,4,7,5)       =        -1.047864	     -60.038203
	 D(2,4,7,6)       =         1.046340	      59.950868
	 D(2,4,7,10)      =        -3.141100	    -179.971786
	 D(3,4,7,5)       =         1.045912	      59.926330
	 D(3,4,7,6)       =         3.140116	     179.915401
	 D(3,4,7,10)      =        -1.047324	     -60.007253
	 D(4,7,10,8)      =         2.618178	     150.010523
	 D(4,7,10,9)      =        -1.570963	     -90.009523
	 D(4,7,10,14)     =         0.523468	      29.992481
	 D(5,7,10,8)      =         0.524654	      30.060487
	 D(5,7,10,9)      =         2.618700	     150.040442
	 D(5,7,10,14)     =        -1.570056	     -89.957555
	 D(6,7,10,8)      =        -1.568807	     -89.886047
	 D(6,7,10,9)      =         0.525238	      30.093908
	 D(6,7,10,14)     =         2.619668	     150.095911
	 D(7,10,14,11)    =         3.141408	     179.989448
	 D(7,10,14,12)    =         1.046747	      59.974196
	 D(7,10,14,13)    =        -1.047335	     -60.007849
	 D(8,10,14,11)    =         1.046982	      59.987626
	 D(8,10,14,12)    =        -1.047680	     -60.027626
	 D(8,10,14,13)    =         3.141424	     179.990329
	 D(9,10,14,11)    =        -1.047012	     -59.989345
	 D(9,10,14,12)    =         3.141512	     179.995403
	 D(9,10,14,13)    =         1.047431	      60.013359

	Current energy   :      -158.1484042839

	Generating empirical Hessian (Schlegel '84) for each fragment.
	Adding user-defined constraint: Fragment 1; Coordinate 49:
		Value =     0.523468; Fixed value    =     0.523599
		Force =     0.000066; Force constant =     0.500000
	Removing off-diagonal coupling between coordinate 49 and others.
	Taking RFO optimization step.
	Going to follow RFO solution 1.
	Using RFO vector 1.

	Determining step-restricting scale parameter for RS-RFO.
	Maximum step size allowed    0.10000

	 Iter      |step|        alpha        rfo_root  
	------------------------------------------------
	    0     0.39566       1.00000           1
	    1     0.27522       4.26105           1
	    2     0.18972      13.86067           1
	    3     0.13806      32.67341           1
	    4     0.11138      55.68573           1
	    5     0.10157      69.44905           1
	    6     0.10004      71.99688           1
	    7     0.10000      72.06077           1
	------------------------------------------------
	Norm of target step-size    0.10000
	Projected energy change by RFO approximation:        -0.0079079446

	Back-transformation to cartesian coordinates...
	Could not converge backtransformation.
	Using first guess instead.

	--- Internal Coordinate Step in ANG or DEG, aJ/ANG or AJ/DEG ---
	 ---------------------------------------------------------------------------
	   Coordinate                Previous        Force       Change         New 
	   ----------                --------       ------       ------       ------
	    1 R(1,4)          =      1.069855     0.099484     0.006947     1.076802
	    2 R(2,4)          =      1.070548     0.098423     0.007859     1.078407
	    3 R(3,4)          =      1.069268     0.061918     0.005333     1.074601
	    4 R(4,7)          =      1.541238    -0.031183    -0.000481     1.540757
	    5 R(5,7)          =      1.070606     0.100151     0.006734     1.077341
	    6 R(6,7)          =      1.070070     0.099522     0.006961     1.077031
	    7 R(7,10)         =      1.540128     0.120322     0.008996     1.549123
	    8 R(8,10)         =      1.069698     0.101965     0.007122     1.076820
	    9 R(9,10)         =      1.069668     0.105683     0.007097     1.076765
	   10 R(10,14)        =      1.539422    -0.024511     0.000016     1.539438
	   11 R(11,14)        =      1.069756     0.103443     0.008197     1.077953
	   12 R(12,14)        =      1.069761     0.100510     0.007011     1.076772
	   13 R(13,14)        =      1.070201     0.056826     0.004995     1.075196
	   14 B(1,4,2)        =    109.548269    -0.000260    -0.245671   109.302597
	   15 B(1,4,3)        =    109.524905    -0.000238    -0.308209   109.216696
	   16 B(1,4,7)        =    109.408432     0.000233     0.218296   109.626728
	   17 B(2,4,3)        =    109.481269    -0.000366    -0.353478   109.127791
	   18 B(2,4,7)        =    109.410969     0.000118     0.133323   109.544292
	   19 B(3,4,7)        =    109.453362     0.000514     0.552259   110.005621
	   20 B(4,7,5)        =    109.443015    -0.000831    -0.805691   108.637324
	   21 B(4,7,6)        =    109.531731    -0.000989    -0.884504   108.647227
	   22 B(4,7,10)       =    109.501110     0.003124     2.956018   112.457129
	   23 B(5,7,6)        =    109.446161     0.000374     0.230917   109.677078
	   24 B(5,7,10)       =    109.416149    -0.000791    -0.695084   108.721065
	   25 B(6,7,10)       =    109.489072    -0.000887    -0.813427   108.675645
	   26 B(7,10,8)       =    109.452301    -0.000885    -0.811334   108.640967
	   27 B(7,10,9)       =    109.482155    -0.000798    -0.702377   108.779778
	   28 B(7,10,14)      =    109.504437     0.003124     2.955061   112.459498
	   29 B(8,10,9)       =    109.458846     0.000372     0.228983   109.687829
	   30 B(8,10,14)      =    109.478806    -0.000983    -0.877312   108.601494
	   31 B(9,10,14)      =    109.450772    -0.000831    -0.804572   108.646201
	   32 B(10,14,11)     =    109.488965     0.000109     0.124058   109.613022
	   33 B(10,14,12)     =    109.503926     0.000217     0.203002   109.706927
	   34 B(10,14,13)     =    109.524173     0.000506     0.546174   110.070347
	   35 B(11,14,12)     =    109.458432    -0.000247    -0.233271   109.225161
	   36 B(11,14,13)     =    109.438058    -0.000360    -0.350161   109.087897
	   37 B(12,14,13)     =    109.413709    -0.000226    -0.295600   109.118110
	   38 D(1,4,7,5)      =    179.942714     0.000089     0.372015   180.314729
	   39 D(1,4,7,6)      =    -60.068215    -0.000061    -0.351915   -60.420130
	   40 D(1,4,7,10)     =     60.009130    -0.000010    -0.086952    59.922179
	   41 D(2,4,7,5)      =    -60.038203     0.000066     0.286534   -59.751669
	   42 D(2,4,7,6)      =     59.950868    -0.000085    -0.437396    59.513472
	   43 D(2,4,7,10)     =   -179.971786    -0.000033    -0.172433  -180.144219
	   44 D(3,4,7,5)      =     59.926330     0.000051     0.274605    60.200935
	   45 D(3,4,7,6)      =    179.915401    -0.000099    -0.449325   179.466076
	   46 D(3,4,7,10)     =    -60.007253    -0.000048    -0.184362   -60.191615
	   47 D(4,7,10,8)     =    150.010523     0.000100     0.423529   150.434052
	   48 D(4,7,10,9)     =    -90.009523    -0.000032    -0.199761   -90.209283
	   49 D(4,7,10,14)    =     29.992481     0.000061     0.194925    30.187406
	   50 D(5,7,10,8)     =     30.060487     0.000006     0.029331    30.089818
	   51 D(5,7,10,9)     =    150.040442    -0.000125    -0.593959   149.446482
	   52 D(5,7,10,14)    =    -89.957555    -0.000032    -0.199273   -90.156828
	   53 D(6,7,10,8)     =    -89.886047     0.000137     0.646005   -89.240042
	   54 D(6,7,10,9)     =     30.093908     0.000005     0.022715    30.116623
	   55 D(6,7,10,14)    =    150.095911     0.000099     0.417401   150.513312
	   56 D(7,10,14,11)   =    179.989448    -0.000033    -0.168000   179.821447
	   57 D(7,10,14,12)   =     59.974196    -0.000009    -0.083114    59.891082
	   58 D(7,10,14,13)   =    -60.007849    -0.000047    -0.184042   -60.191890
	   59 D(8,10,14,11)   =     59.987626    -0.000085    -0.435624    59.552002
	   60 D(8,10,14,12)   =    -60.027626    -0.000061    -0.350737   -60.378363
	   61 D(8,10,14,13)   =    179.990329    -0.000100    -0.451665   179.538664
	   62 D(9,10,14,11)   =    -59.989345     0.000065     0.284495   -59.704850
	   63 D(9,10,14,12)   =    179.995403     0.000089     0.369382   180.364785
	   64 D(9,10,14,13)   =     60.013359     0.000050     0.268454    60.281813
	 ---------------------------------------------------------------------------
	Successfully symmetrized geometry.
	 Forces used to impose fixed constraints are not included.
	  Forces zeroed: 49 

  ==> Convergence Check <==

  Measures of convergence in internal coordinates in au.
  Criteria marked as inactive (o), active & met (*), and active & unmet ( ).
  --------------------------------------------------------------------------------------------- ~
   Step     Total Energy     Delta E     MAX Force     RMS Force      MAX Disp      RMS Disp    ~
  --------------------------------------------------------------------------------------------- ~
    Convergence Criteria    1.00e-06 *    3.00e-04 *             o    1.20e-03 *             o  ~
  --------------------------------------------------------------------------------------------- ~
      1    -158.14840428   -1.58e+02      4.11e-02      1.02e-02 o    5.16e-02      1.26e-02 o  ~
  ---------------------------------------------------------------------------------------------

	Writing optimization data to binary file.
	Structure for next step:
	Cartesian Geometry (in Angstrom)
	    H     0.5210207189   1.3698497989  -1.2872527571
	    H    -0.3289678561   2.5078900033  -0.2516099354
	    H     0.9177725607   1.4714045749   0.4181115720
	    C     0.1207376470   1.5289358547  -0.3003544966
	    H    -1.3363086811   0.6343886510   0.9928356212
	    H    -1.7344094159   0.5403986037  -0.7202753842
	    C    -0.9430881511   0.4572068148   0.0055932906
	    H    -0.9255422825  -1.6004772454   0.6311675494
	    H    -0.4735198140  -1.3571572826  -1.0530779967
	    C    -0.3680672837  -0.9801673772  -0.0499922925
	    H     1.4706562497  -2.0519309687   0.2910461680
	    H     1.2438811514  -0.6661618439   1.3465257230
	    H     1.7004130516  -0.4276154033  -0.3293374975
	    C     1.1195996502  -1.0340287516   0.3422022394
			--------------------------
			 OPTKING Finished Execution 
			--------------------------

    Structure for next step:
    Molecular point group: c1
    Full point group: C1

    Geometry (in Angstrom), charge = 0, multiplicity = 1:

    H            0.517345790587     1.368347713359    -1.287387340090
    H           -0.332642784424     2.506387917837    -0.251744518372
    H            0.914097632411     1.469902489432     0.417976989003
    C            0.117062718676     1.527433769162    -0.300489079616
    H           -1.339983609398     0.632886565474     0.992701038243
    H           -1.738084344204     0.538896518170    -0.720409967227
    C           -0.946763079413     0.455704729289     0.005458707591
    H           -0.929217210817    -1.601979330869     0.631032966440
    H           -0.477194742323    -1.358659368057    -1.053212579749
    C           -0.371742211991    -0.981669462671    -0.050126875519
    H            1.466981321353    -2.053433054171     0.290911584972
    H            1.240206223117    -0.667663929414     1.346391140025
    H            1.696738123265    -0.429117488796    -0.329472080539
    C            1.115924721870    -1.035530837099     0.342067656379

gradient() will perform analytic gradient computation.

*** tstart() called on gpu-2-10.local
*** at Wed Jun 14 14:32:55 2017

    SCF Algorithm Type (re)set to DF.

*** tstart() called on gpu-2-10.local
*** at Wed Jun 14 14:32:55 2017

   => Loading Basis Set <=

    Name: AUG-CC-PVTZ
    Role: ORBITAL
    Keyword: BASIS
    atoms 1-3, 5-6, 8-9, 11-13 entry H          line    34 file /cbio/jclab/home/chayas/anaconda/envs/py35/share/psi4/basis/aug-cc-pvtz.gbs 
    atoms 4, 7, 10, 14         entry C          line   221 file /cbio/jclab/home/chayas/anaconda/envs/py35/share/psi4/basis/aug-cc-pvtz.gbs 


         ---------------------------------------------------------
                                   SCF
            by Justin Turney, Rob Parrish, and Andy Simmonett
                              RHF Reference
                        1 Threads,    953 MiB Core
         ---------------------------------------------------------

  ==> Geometry <==

    Molecular point group: c1
    Full point group: C1

    Geometry (in Angstrom), charge = 0, multiplicity = 1:

       Center              X                  Y                   Z               Mass       
    ------------   -----------------  -----------------  -----------------  -----------------
           H          0.517345790587     1.368347713359    -1.287387340090     1.007825032070
           H         -0.332642784424     2.506387917837    -0.251744518372     1.007825032070
           H          0.914097632411     1.469902489432     0.417976989003     1.007825032070
           C          0.117062718676     1.527433769162    -0.300489079616    12.000000000000
           H         -1.339983609398     0.632886565474     0.992701038243     1.007825032070
           H         -1.738084344204     0.538896518170    -0.720409967227     1.007825032070
           C         -0.946763079413     0.455704729289     0.005458707591    12.000000000000
           H         -0.929217210817    -1.601979330869     0.631032966440     1.007825032070
           H         -0.477194742323    -1.358659368057    -1.053212579749     1.007825032070
           C         -0.371742211991    -0.981669462671    -0.050126875519    12.000000000000
           H          1.466981321353    -2.053433054171     0.290911584972     1.007825032070
           H          1.240206223117    -0.667663929414     1.346391140025     1.007825032070
           H          1.696738123265    -0.429117488796    -0.329472080539     1.007825032070
           C          1.115924721870    -1.035530837099     0.342067656379    12.000000000000

  Running in c1 symmetry.

  Rotational constants: A =      0.39616  B =      0.18559  C =      0.14176 [cm^-1]
  Rotational constants: A =  11876.58183  B =   5563.97265  C =   4249.87131 [MHz]
  Nuclear repulsion =  134.301508900777065

  Charge       = 0
  Multiplicity = 1
  Electrons    = 34
  Nalpha       = 17
  Nbeta        = 17

  ==> Algorithm <==

  SCF Algorithm Type is DF.
  DIIS enabled.
  MOM disabled.
  Fractional occupation disabled.
  Guess Type is READ.
  Energy threshold   = 1.00e-10
  Density threshold  = 1.00e-10
  Integral threshold = 0.00e+00

  ==> Primary Basis <==

  Basis Set: AUG-CC-PVTZ
    Blend: AUG-CC-PVTZ
    Number of shells: 146
    Number of basis function: 414
    Number of Cartesian functions: 470
    Spherical Harmonics?: true
    Max angular momentum: 3

   => Loading Basis Set <=

    Name: (AUG-CC-PVTZ AUX)
    Role: JKFIT
    Keyword: DF_BASIS_SCF
    atoms 1-3, 5-6, 8-9, 11-13 entry H          line    69 file /cbio/jclab/home/chayas/anaconda/envs/py35/share/psi4/basis/aug-cc-pvtz-jkfit.gbs 
    atoms 4, 7, 10, 14         entry C          line   161 file /cbio/jclab/home/chayas/anaconda/envs/py35/share/psi4/basis/aug-cc-pvtz-jkfit.gbs 

  Reading orbitals from file 180, no projection.

  ==> Pre-Iterations <==

   -------------------------------------------------------
    Irrep   Nso     Nmo     Nalpha   Nbeta   Ndocc  Nsocc
   -------------------------------------------------------
     A        414     414       0       0       0       0
   -------------------------------------------------------
    Total     414     414      17      17      17       0
   -------------------------------------------------------

  ==> Integral Setup <==

  ==> DFJK: Density-Fitted J/K Matrices <==

    J tasked:                  Yes
    K tasked:                  Yes
    wK tasked:                  No
    OpenMP threads:              1
    Integrals threads:           1
    Memory (MB):               715
    Algorithm:                Core
    Integral Cache:           NONE
    Schwarz Cutoff:          1E-12
    Fitting Condition:       1E-12

   => Auxiliary Basis Set <=

  Basis Set: (AUG-CC-PVTZ AUX)
    Blend: AUG-CC-PVTZ-JKFIT
    Number of shells: 260
    Number of basis function: 876
    Number of Cartesian functions: 1074
    Spherical Harmonics?: true
    Max angular momentum: 4

  Minimum eigenvalue in the overlap matrix is 5.3663627143E-06.
  Using Symmetric Orthogonalization.

  SCF Guess: Orbitals guess was supplied from a previous computation.

  ==> Iterations <==

                           Total Energy        Delta E     RMS |[F,P]|

   @DF-RHF iter   0:  -157.31143444636899   -1.57311e+02   2.70662e-04 
   @DF-RHF iter   1:  -157.34626209991356   -3.48277e-02   6.55938e-05 
   @DF-RHF iter   2:  -157.34674571996885   -4.83620e-04   3.03597e-05 DIIS
   @DF-RHF iter   3:  -157.34683475966659   -8.90397e-05   8.07945e-06 DIIS
   @DF-RHF iter   4:  -157.34684744451533   -1.26848e-05   1.01229e-06 DIIS
   @DF-RHF iter   5:  -157.34684765552743   -2.11012e-07   2.30865e-07 DIIS
   @DF-RHF iter   6:  -157.34684766607856   -1.05511e-08   6.26023e-08 DIIS
   @DF-RHF iter   7:  -157.34684766683938   -7.60821e-10   1.91493e-08 DIIS
   @DF-RHF iter   8:  -157.34684766690020   -6.08225e-11   4.39368e-09 DIIS
   @DF-RHF iter   9:  -157.34684766690120   -9.94760e-13   8.16752e-10 DIIS
   @DF-RHF iter  10:  -157.34684766690128   -8.52651e-14   1.53118e-10 DIIS
   @DF-RHF iter  11:  -157.34684766690148   -1.98952e-13   2.69869e-11 DIIS

  ==> Post-Iterations <==

    Orbital Energies (a.u.)
    -----------------------

    Doubly Occupied:                                                      

       1A    -11.209605     2A    -11.209022     3A    -11.201414  
       4A    -11.201313     5A     -1.069615     6A     -0.971657  
       7A     -0.881000     8A     -0.771603     9A     -0.640373  
      10A     -0.619800    11A     -0.571895    12A     -0.534028  
      13A     -0.527639    14A     -0.513419    15A     -0.461050  
      16A     -0.454232    17A     -0.453504  

    Virtual:                                                              

      18A      0.031694    19A      0.038102    20A      0.040121  
      21A      0.040145    22A      0.057888    23A      0.059681  
      24A      0.061551    25A      0.062676    26A      0.064647  
      27A      0.086467    28A      0.117074    29A      0.122787  
      30A      0.125782    31A      0.126023    32A      0.127765  
      33A      0.133287    34A      0.138074    35A      0.140885  
      36A      0.143269    37A      0.150353    38A      0.161284  
      39A      0.166012    40A      0.174260    41A      0.192836  
      42A      0.194998    43A      0.215162    44A      0.230186  
      45A      0.244088    46A      0.265828    47A      0.275282  
      48A      0.288686    49A      0.290755    50A      0.306651  
      51A      0.307798    52A      0.309377    53A      0.314921  
      54A      0.321845    55A      0.327167    56A      0.327611  
      57A      0.335355    58A      0.350056    59A      0.352767  
      60A      0.356465    61A      0.357731    62A      0.362493  
      63A      0.372345    64A      0.378648    65A      0.387592  
      66A      0.395516    67A      0.409742    68A      0.415051  
      69A      0.415735    70A      0.423778    71A      0.438294  
      72A      0.439171    73A      0.445750    74A      0.452280  
      75A      0.459534    76A      0.460583    77A      0.469585  
      78A      0.471889    79A      0.474888    80A      0.478988  
      81A      0.485536    82A      0.490026    83A      0.494843  
      84A      0.503924    85A      0.512875    86A      0.534601  
      87A      0.539068    88A      0.548847    89A      0.555593  
      90A      0.558930    91A      0.566846    92A      0.572606  
      93A      0.573711    94A      0.579225    95A      0.585848  
      96A      0.603764    97A      0.605397    98A      0.613935  
      99A      0.629840   100A      0.631410   101A      0.641768  
     102A      0.658193   103A      0.667960   104A      0.679585  
     105A      0.694531   106A      0.697011   107A      0.744549  
     108A      0.786780   109A      0.793528   110A      0.813129  
     111A      0.819136   112A      0.827460   113A      0.829571  
     114A      0.839526   115A      0.841958   116A      0.865291  
     117A      0.867580   118A      0.869387   119A      0.878371  
     120A      0.893314   121A      0.898659   122A      0.908385  
     123A      0.916592   124A      0.923124   125A      0.928180  
     126A      0.945368   127A      0.945799   128A      0.954300  
     129A      0.970940   130A      0.977885   131A      0.985044  
     132A      0.991964   133A      0.995523   134A      1.002455  
     135A      1.004187   136A      1.013433   137A      1.036753  
     138A      1.054688   139A      1.070262   140A      1.080731  
     141A      1.084568   142A      1.092538   143A      1.103393  
     144A      1.107414   145A      1.112604   146A      1.124979  
     147A      1.125929   148A      1.142731   149A      1.161313  
     150A      1.161991   151A      1.164855   152A      1.172314  
     153A      1.189315   154A      1.203843   155A      1.208461  
     156A      1.219525   157A      1.224319   158A      1.238636  
     159A      1.245596   160A      1.261279   161A      1.263530  
     162A      1.273385   163A      1.303649   164A      1.304036  
     165A      1.335612   166A      1.336337   167A      1.355119  
     168A      1.357822   169A      1.370760   170A      1.373579  
     171A      1.395005   172A      1.419535   173A      1.419777  
     174A      1.436087   175A      1.447759   176A      1.478996  
     177A      1.484805   178A      1.496231   179A      1.507941  
     180A      1.513569   181A      1.526131   182A      1.552199  
     183A      1.558009   184A      1.563307   185A      1.579849  
     186A      1.591877   187A      1.616734   188A      1.623229  
     189A      1.634487   190A      1.659515   191A      1.664491  
     192A      1.678448   193A      1.680282   194A      1.687805  
     195A      1.688177   196A      1.695898   197A      1.707891  
     198A      1.731302   199A      1.735452   200A      1.757154  
     201A      1.768026   202A      1.780345   203A      1.783923  
     204A      1.792616   205A      1.806977   206A      1.809206  
     207A      1.821299   208A      1.825782   209A      1.851144  
     210A      1.855368   211A      1.879594   212A      1.894246  
     213A      1.907203   214A      1.920810   215A      1.928712  
     216A      1.936365   217A      1.968281   218A      1.979977  
     219A      1.998955   220A      2.000969   221A      2.018263  
     222A      2.035252   223A      2.043300   224A      2.056459  
     225A      2.063759   226A      2.081585   227A      2.090812  
     228A      2.106393   229A      2.118586   230A      2.144273  
     231A      2.158230   232A      2.183840   233A      2.200018  
     234A      2.228878   235A      2.239567   236A      2.250687  
     237A      2.281429   238A      2.296745   239A      2.301715  
     240A      2.313539   241A      2.341496   242A      2.351580  
     243A      2.363683   244A      2.383074   245A      2.399283  
     246A      2.419791   247A      2.447397   248A      2.448278  
     249A      2.483660   250A      2.486245   251A      2.526746  
     252A      2.530176   253A      2.583678   254A      2.588766  
     255A      2.594747   256A      2.687909   257A      2.807175  
     258A      2.848640   259A      2.972148   260A      3.063164  
     261A      3.245800   262A      3.269233   263A      3.313315  
     264A      3.361912   265A      3.389817   266A      3.437139  
     267A      3.443182   268A      3.507484   269A      3.513730  
     270A      3.534603   271A      3.550600   272A      3.557770  
     273A      3.564087   274A      3.583187   275A      3.618409  
     276A      3.659238   277A      3.667260   278A      3.679289  
     279A      3.679707   280A      3.687703   281A      3.703130  
     282A      3.712889   283A      3.749205   284A      3.765465  
     285A      3.772678   286A      3.784621   287A      3.808171  
     288A      3.826664   289A      3.829438   290A      3.848359  
     291A      3.861176   292A      3.874446   293A      3.878178  
     294A      3.906415   295A      3.922898   296A      3.937709  
     297A      3.980835   298A      3.988316   299A      3.994792  
     300A      4.007840   301A      4.014521   302A      4.040993  
     303A      4.048060   304A      4.050640   305A      4.068980  
     306A      4.072496   307A      4.099664   308A      4.123450  
     309A      4.148398   310A      4.159738   311A      4.169678  
     312A      4.169803   313A      4.253119   314A      4.257911  
     315A      4.272649   316A      4.287431   317A      4.289875  
     318A      4.311266   319A      4.328127   320A      4.348216  
     321A      4.356463   322A      4.379386   323A      4.399202  
     324A      4.405827   325A      4.435348   326A      4.473415  
     327A      4.486033   328A      4.531298   329A      4.573636  
     330A      4.609195   331A      4.616045   332A      4.637095  
     333A      4.649398   334A      4.680797   335A      4.709340  
     336A      4.727404   337A      4.737475   338A      4.773854  
     339A      4.786720   340A      4.808747   341A      4.844366  
     342A      4.866516   343A      4.877253   344A      4.911090  
     345A      4.927752   346A      4.940183   347A      4.962836  
     348A      4.976961   349A      4.979206   350A      5.005751  
     351A      5.014946   352A      5.051101   353A      5.086297  
     354A      5.094335   355A      5.116195   356A      5.126251  
     357A      5.141173   358A      5.184898   359A      5.199870  
     360A      5.213705   361A      5.246651   362A      5.272220  
     363A      5.305807   364A      5.328551   365A      5.340916  
     366A      5.348684   367A      5.394113   368A      5.399277  
     369A      5.412973   370A      5.413533   371A      5.455688  
     372A      5.474244   373A      5.507983   374A      5.529476  
     375A      5.550388   376A      5.563291   377A      5.582250  
     378A      5.671885   379A      5.688780   380A      5.713730  
     381A      5.721085   382A      5.736584   383A      5.750745  
     384A      5.800641   385A      5.838501   386A      5.864730  
     387A      5.889544   388A      5.933854   389A      5.982128  
     390A      5.994545   391A      6.094391   392A      6.107826  
     393A      6.122145   394A      6.160086   395A      6.212415  
     396A      6.237176   397A      6.287952   398A      6.303219  
     399A      6.316293   400A      6.363875   401A      6.417670  
     402A      6.484523   403A      6.581122   404A      6.594953  
     405A      6.764485   406A      6.779710   407A      6.873874  
     408A      6.881852   409A      6.950449   410A      6.971624  
     411A     17.957557   412A     18.262343   413A     19.097642  
     414A     19.343815  

    Final Occupation by Irrep:
              A 
    DOCC [    17 ]

  Energy converged.

  @DF-RHF Final Energy:  -157.34684766690148

   => Energetics <=

    Nuclear Repulsion Energy =            134.3015089007770655
    One-Electron Energy =                -476.7143763465259667
    Two-Electron Energy =                 185.0660197788474477
    DFT Exchange-Correlation Energy =       0.0000000000000000
    Empirical Dispersion Energy =           0.0000000000000000
    PCM Polarization Energy =               0.0000000000000000
    EFP Energy =                            0.0000000000000000
    Total Energy =                       -157.3468476669014819



Properties will be evaluated at   0.000000,   0.000000,   0.000000 Bohr

Properties computed using the SCF density matrix

  Nuclear Dipole Moment: (a.u.)
     X:     0.9546      Y:     0.3802      Z:     0.0345

  Electronic Dipole Moment: (a.u.)
     X:    -0.9837      Y:    -0.3923      Z:    -0.0354

  Dipole Moment: (a.u.)
     X:    -0.0291      Y:    -0.0121      Z:    -0.0009     Total:     0.0316

  Dipole Moment: (Debye)
     X:    -0.0741      Y:    -0.0308      Z:    -0.0022     Total:     0.0803


*** tstop() called on gpu-2-10.local at Wed Jun 14 14:34:26 2017
Module time:
	user time   =      90.41 seconds =       1.51 minutes
	system time =       0.49 seconds =       0.01 minutes
	total time  =         91 seconds =       1.52 minutes
Total time:
	user time   =     583.63 seconds =       9.73 minutes
	system time =       4.73 seconds =       0.08 minutes
	total time  =        589 seconds =       9.82 minutes

  //>>>>>>>>>>>>>>>>>>>>>>>>>>>>>>>>>>>//
  //               DFMP2               //
  //<<<<<<<<<<<<<<<<<<<<<<<<<<<<<<<<<<<//

   => Loading Basis Set <=

    Name: (AUG-CC-PVTZ AUX)
    Role: RIFIT
    Keyword: DF_BASIS_MP2
    atoms 1-3, 5-6, 8-9, 11-13 entry H          line    29 file /cbio/jclab/home/chayas/anaconda/envs/py35/share/psi4/basis/aug-cc-pvtz-ri.gbs 
    atoms 4, 7, 10, 14         entry C          line   147 file /cbio/jclab/home/chayas/anaconda/envs/py35/share/psi4/basis/aug-cc-pvtz-ri.gbs 

	 --------------------------------------------------------
	                          DF-MP2                         
	      2nd-Order Density-Fitted Moller-Plesset Theory     
	              RMP2 Wavefunction,   1 Threads             
	                                                         
	        Rob Parrish, Justin Turney, Andy Simmonett,      
	           Ed Hohenstein, and C. David Sherrill          
	 --------------------------------------------------------

   => Auxiliary Basis Set <=

  Basis Set: (AUG-CC-PVTZ AUX)
    Blend: AUG-CC-PVTZ-RI
    Number of shells: 252
    Number of basis function: 884
    Number of Cartesian functions: 1094
    Spherical Harmonics?: true
    Max angular momentum: 4

	 --------------------------------------------------------
	                 NBF =   414, NAUX =   884
	 --------------------------------------------------------
	   CLASS    FOCC     OCC    AOCC    AVIR     VIR    FVIR
	   PAIRS       0      17      17     397     397       0
	 --------------------------------------------------------


         ------------------------------------------------------------
                                     CPHF                           
                                  Rob Parrish                       
         ------------------------------------------------------------

  ==> Geometry <==

    Molecular point group: c1
    Full point group: C1

    Geometry (in Angstrom), charge = 0, multiplicity = 1:

       Center              X                  Y                   Z               Mass       
    ------------   -----------------  -----------------  -----------------  -----------------
           H          0.517345790587     1.368347713359    -1.287387340090     1.007825032070
           H         -0.332642784424     2.506387917837    -0.251744518372     1.007825032070
           H          0.914097632411     1.469902489432     0.417976989003     1.007825032070
           C          0.117062718676     1.527433769162    -0.300489079616    12.000000000000
           H         -1.339983609398     0.632886565474     0.992701038243     1.007825032070
           H         -1.738084344204     0.538896518170    -0.720409967227     1.007825032070
           C         -0.946763079413     0.455704729289     0.005458707591    12.000000000000
           H         -0.929217210817    -1.601979330869     0.631032966440     1.007825032070
           H         -0.477194742323    -1.358659368057    -1.053212579749     1.007825032070
           C         -0.371742211991    -0.981669462671    -0.050126875519    12.000000000000
           H          1.466981321353    -2.053433054171     0.290911584972     1.007825032070
           H          1.240206223117    -0.667663929414     1.346391140025     1.007825032070
           H          1.696738123265    -0.429117488796    -0.329472080539     1.007825032070
           C          1.115924721870    -1.035530837099     0.342067656379    12.000000000000

  Nuclear repulsion =  134.301508900777065
  Reference energy  = -157.346847666901482

  ==> Basis Set <==

  Basis Set: AUG-CC-PVTZ
    Blend: AUG-CC-PVTZ
    Number of shells: 146
    Number of basis function: 414
    Number of Cartesian functions: 470
    Spherical Harmonics?: true
    Max angular momentum: 3

  ==> CGRSolver (by Rob Parrish) <==

   Number of roots    =         1
   Preconditioning    =    JACOBI
   Convergence cutoff =     1E-06
   Maximum iterations =       100

  ==> CPHFRHamiltonian (by Rob Parrish) <== 

  ==> DFJK: Density-Fitted J/K Matrices <==

    J tasked:                  Yes
    K tasked:                  Yes
    wK tasked:                  No
    OpenMP threads:              1
    Integrals threads:           1
    Memory (MB):               715
    Algorithm:                Core
    Integral Cache:           NONE
    Schwarz Cutoff:          1E-12
    Fitting Condition:       1E-12

   => Auxiliary Basis Set <=

  Basis Set: (AUG-CC-PVTZ AUX)
    Blend: AUG-CC-PVTZ-JKFIT
    Number of shells: 260
    Number of basis function: 876
    Number of Cartesian functions: 1074
    Spherical Harmonics?: true
    Max angular momentum: 4

  ==> CPHF Iterations <==

  => Iterations <=

             Iter  Converged  Remaining    Residual
  CGR           1          0          1   8.608E-02
  CGR           2          0          1   1.369E-02
  CGR           3          0          1   3.192E-03
  CGR           4          0          1   7.772E-04
  CGR           5          0          1   1.792E-04
  CGR           6          0          1   3.045E-05
  CGR           7          0          1   5.356E-06
  CGR           8          0          1   1.182E-06
  CGR           9          1          0   1.667E-07

    CGRSolver converged.

  ==> DFCorrGrad: Density-Fitted Correlated Gradients <==

    OpenMP threads:              1
    Integrals threads:           1
    Memory (MB):               715
    Schwarz Cutoff:          0E+00
    Fitting Condition:       1E-12

   => Auxiliary Basis Set <=

  Basis Set: (AUG-CC-PVTZ AUX)
    Blend: AUG-CC-PVTZ-JKFIT
    Number of shells: 260
    Number of basis function: 876
    Number of Cartesian functions: 1074
    Spherical Harmonics?: true
    Max angular momentum: 4

	-----------------------------------------------------------
	 ==================> DF-MP2 Energies <==================== 
	-----------------------------------------------------------
	 Reference Energy          =    -157.3468476669014819 [Eh]
	 Singles Energy            =      -0.0000000000000000 [Eh]
	 Same-Spin Energy          =      -0.1661586293243499 [Eh]
	 Opposite-Spin Energy      =      -0.6407619810846422 [Eh]
	 Correlation Energy        =      -0.8069206104089921 [Eh]
	 Total Energy              =    -158.1537682773104621 [Eh]
	-----------------------------------------------------------
	 ================> DF-SCS-MP2 Energies <================== 
	-----------------------------------------------------------
	 SCS Same-Spin Scale       =       0.3333333333333333 [-]
	 SCS Opposite-Spin Scale   =       1.2000000000000000 [-]
	 SCS Same-Spin Energy      =      -0.0553862097747833 [Eh]
	 SCS Opposite-Spin Energy  =      -0.7689143773015706 [Eh]
	 SCS Correlation Energy    =      -0.8243005870763539 [Eh]
	 SCS Total Energy          =    -158.1711482539778331 [Eh]
	-----------------------------------------------------------


  -Total Gradient:
     Atom            X                  Y                   Z
    ------   -----------------  -----------------  -----------------
       1       -0.004297775809    -0.001342274578     0.006612039263
       2        0.000750826151    -0.006172574912     0.000872520886
       3       -0.005585369134    -0.002850925819    -0.003527784607
       4        0.018230390900     0.011499332989    -0.002995614249
       5        0.005195613200    -0.002367643847    -0.005692260449
       6        0.008585800176    -0.001385793403     0.001087971014
       7       -0.023411147092     0.003976290402     0.003401026572
       8        0.005472512111     0.007049625743    -0.000669642206
       9        0.001892613364     0.005244192903     0.006304736782
      10       -0.013688716471    -0.019092958480    -0.004905702327
      11       -0.003681461774     0.005361662336    -0.000886339267
      12       -0.003507804989    -0.001871763984    -0.006951353008
      13       -0.005935308263    -0.001621352971     0.002975307315
      14        0.019979827631     0.003574183620     0.004375094280


*** tstop() called on gpu-2-10.local at Wed Jun 14 14:40:54 2017
Module time:
	user time   =     475.15 seconds =       7.92 minutes
	system time =       3.68 seconds =       0.06 minutes
	total time  =        479 seconds =       7.98 minutes
Total time:
	user time   =     968.37 seconds =      16.14 minutes
	system time =       7.92 seconds =       0.13 minutes
	total time  =        977 seconds =      16.28 minutes

			-----------------------------------------
			 OPTKING 2.0: for geometry optimizations 
			  - R.A. King,  Bethel University        
			-----------------------------------------

	Previous internal coordinate definitions found.
	---Fragment 1 Geometry and Gradient---
	 H           0.9776418602        2.5858024328       -2.4328094997
	 H          -0.6286037626        4.7363867475       -0.4757281952
	 H           1.7273941840        2.7777131471        0.7898620391
	 C           0.2212164787        2.8864315098       -0.5678420664
	 H          -2.5322020443        1.1959822819        1.8759330941
	 H          -3.2845034064        1.0183668333       -1.3613775415
	 C          -1.7891229328        0.8611571358        0.0103154624
	 H          -1.7559660464       -3.0273022059        1.1924794874
	 H          -0.9017673750       -2.5674941135       -1.9902833354
	 C          -0.7024909727       -1.8550864375       -0.0947260666
	 H           2.7721929394       -3.8804261046        0.5497432245
	 H           2.3436501100       -1.2617019754        2.5443105224
	 H           3.2063703722       -0.8109145327       -0.6226120007
	 C           2.1087921093       -1.9568696843        0.6464141895
	            -0.0042977758       -0.0013422746        0.0066120393
	             0.0007508262       -0.0061725749        0.0008725209
	            -0.0055853691       -0.0028509258       -0.0035277846
	             0.0182303909        0.0114993330       -0.0029956142
	             0.0051956132       -0.0023676438       -0.0056922604
	             0.0085858002       -0.0013857934        0.0010879710
	            -0.0234111471        0.0039762904        0.0034010266
	             0.0054725121        0.0070496257       -0.0006696422
	             0.0018926134        0.0052441929        0.0063047368
	            -0.0136887165       -0.0190929585       -0.0049057023
	            -0.0036814618        0.0053616623       -0.0008863393
	            -0.0035078050       -0.0018717640       -0.0069513530
	            -0.0059353083       -0.0016213530        0.0029753073
	             0.0199798276        0.0035741836        0.0043750943

	---Fragment 1 Intrafragment Coordinates---
	 - Coordinate -           - BOHR/RAD -       - ANG/DEG -
	 R(1,4)           =         2.034861	       1.076802
	 R(2,4)           =         2.037894	       1.078407
	 R(3,4)           =         2.030702	       1.074601
	 R(4,7)           =         2.911609	       1.540757
	 R(5,7)           =         2.035879	       1.077341
	 R(6,7)           =         2.035293	       1.077031
	 R(7,10)          =         2.927419	       1.549123
	 R(8,10)          =         2.034895	       1.076820
	 R(9,10)          =         2.034791	       1.076765
	 R(10,14)         =         2.909117	       1.539438
	 R(11,14)         =         2.037036	       1.077953
	 R(12,14)         =         2.034804	       1.076772
	 R(13,14)         =         2.031826	       1.075196
	 B(1,4,2)         =         1.907690	     109.302597
	 B(1,4,3)         =         1.906191	     109.216696
	 B(1,4,7)         =         1.913347	     109.626728
	 B(2,4,3)         =         1.904639	     109.127791
	 B(2,4,7)         =         1.911909	     109.544292
	 B(3,4,7)         =         1.919960	     110.005621
	 B(4,7,5)         =         1.896079	     108.637324
	 B(4,7,6)         =         1.896252	     108.647227
	 B(4,7,10)        =         1.962747	     112.457129
	 B(5,7,6)         =         1.914226	     109.677078
	 B(5,7,10)        =         1.897541	     108.721065
	 B(6,7,10)        =         1.896748	     108.675645
	 B(7,10,8)        =         1.896143	     108.640967
	 B(7,10,9)        =         1.898565	     108.779778
	 B(7,10,14)       =         1.962789	     112.459498
	 B(8,10,9)        =         1.914414	     109.687829
	 B(8,10,14)       =         1.895454	     108.601494
	 B(9,10,14)       =         1.896234	     108.646201
	 B(10,14,11)      =         1.913108	     109.613022
	 B(10,14,12)      =         1.914747	     109.706927
	 B(10,14,13)      =         1.921090	     110.070347
	 B(11,14,12)      =         1.906339	     109.225161
	 B(11,14,13)      =         1.903943	     109.087897
	 B(12,14,13)      =         1.904470	     109.118110
	 D(1,4,7,5)       =        -3.136100	    -179.685271
	 D(1,4,7,6)       =        -1.054530	     -60.420130
	 D(1,4,7,10)      =         1.045839	      59.922179
	 D(2,4,7,5)       =        -1.042863	     -59.751669
	 D(2,4,7,6)       =         1.038706	      59.513472
	 D(2,4,7,10)      =         3.139076	     179.855781
	 D(3,4,7,5)       =         1.050705	      60.200935
	 D(3,4,7,6)       =         3.132274	     179.466076
	 D(3,4,7,10)      =        -1.050542	     -60.191615
	 D(4,7,10,8)      =         2.625570	     150.434052
	 D(4,7,10,9)      =        -1.574449	     -90.209283
	 D(4,7,10,14)     =         0.526870	      30.187406
	 D(5,7,10,8)      =         0.525166	      30.089818
	 D(5,7,10,9)      =         2.608333	     149.446482
	 D(5,7,10,14)     =        -1.573533	     -90.156828
	 D(6,7,10,8)      =        -1.557533	     -89.240042
	 D(6,7,10,9)      =         0.525634	      30.116623
	 D(6,7,10,14)     =         2.626953	     150.513312
	 D(7,10,14,11)    =         3.138476	     179.821447
	 D(7,10,14,12)    =         1.045297	      59.891082
	 D(7,10,14,13)    =        -1.050547	     -60.191890
	 D(8,10,14,11)    =         1.039379	      59.552002
	 D(8,10,14,12)    =        -1.053801	     -60.378363
	 D(8,10,14,13)    =         3.133541	     179.538664
	 D(9,10,14,11)    =        -1.042046	     -59.704850
	 D(9,10,14,12)    =        -3.135226	    -179.635215
	 D(9,10,14,13)    =         1.052116	      60.281813

	Current energy   :      -158.1537682773

	Energy change for the previous step:
		Projected    :        -0.0079079446
		Actual       :        -0.0053639934

	Performing BFGS update.
	Previous computed or guess Hessian on step 1.
	Steps to be used in Hessian update: 1
	Adding user-defined constraint: Fragment 1; Coordinate 49:
		Value =     0.526870; Fixed value    =     0.523600
		Force =    -0.001717; Force constant =     0.525000
	Removing off-diagonal coupling between coordinate 49 and others.
	Taking RFO optimization step.
	Going to follow RFO solution 1.
	Using RFO vector 1.

	Determining step-restricting scale parameter for RS-RFO.
	Maximum step size allowed    0.10000

	 Iter      |step|        alpha        rfo_root  
	------------------------------------------------
	    0     0.18915       1.00000           1
	    1     0.14909       4.65894           1
	    2     0.12032      12.86980           1
	    3     0.10520      22.10780           1
	    4     0.10047      26.29375           1
	    5     0.10000      26.75060           1
	------------------------------------------------
	Norm of target step-size    0.10000
	Projected energy change by RFO approximation:        -0.0026351350

	Back-transformation to cartesian coordinates...
	Successfully converged to displaced geometry.

	--- Internal Coordinate Step in ANG or DEG, aJ/ANG or AJ/DEG ---
	 ---------------------------------------------------------------------------
	   Coordinate                Previous        Force       Change         New 
	   ----------                --------       ------       ------       ------
	    1 R(1,4)          =      1.076802     0.061455     0.009958     1.086760
	    2 R(2,4)          =      1.078407     0.048419     0.007843     1.086250
	    3 R(3,4)          =      1.074601     0.052305     0.009582     1.084184
	    4 R(4,7)          =      1.540757    -0.056678    -0.012199     1.528559
	    5 R(5,7)          =      1.077341     0.061807     0.009889     1.087230
	    6 R(6,7)          =      1.077031     0.058894     0.009443     1.086474
	    7 R(7,10)         =      1.549123    -0.011923    -0.007874     1.541249
	    8 R(8,10)         =      1.076820     0.060289     0.009654     1.086474
	    9 R(9,10)         =      1.076765     0.065043     0.010379     1.087144
	   10 R(10,14)        =      1.539438    -0.051987    -0.011231     1.528208
	   11 R(11,14)        =      1.077953     0.051244     0.008276     1.086229
	   12 R(12,14)        =      1.076772     0.062021     0.010041     1.086813
	   13 R(13,14)        =      1.075196     0.049259     0.009118     1.084314
	   14 B(1,4,2)        =    109.302597    -0.000211    -0.726084   108.576513
	   15 B(1,4,3)        =    109.216696    -0.000204    -0.734195   108.482501
	   16 B(1,4,7)        =    109.626728     0.000235     0.856072   110.482801
	   17 B(2,4,3)        =    109.127791    -0.000214    -0.617404   108.510387
	   18 B(2,4,7)        =    109.544292     0.000112     0.372025   109.916317
	   19 B(3,4,7)        =    110.005621     0.000277     0.804727   110.810348
	   20 B(4,7,5)        =    108.637324    -0.000220    -0.236156   108.401168
	   21 B(4,7,6)        =    108.647227    -0.000242    -0.074484   108.572743
	   22 B(4,7,10)       =    112.457129     0.000892     1.245619   113.702748
	   23 B(5,7,6)        =    109.677078    -0.000028    -0.770906   108.906172
	   24 B(5,7,10)       =    108.721065    -0.000182    -0.062255   108.658811
	   25 B(6,7,10)       =    108.675645    -0.000230    -0.164440   108.511205
	   26 B(7,10,8)       =    108.640967    -0.000229    -0.176547   108.464420
	   27 B(7,10,9)       =    108.779778    -0.000187    -0.078575   108.701203
	   28 B(7,10,14)      =    112.459498     0.000891     1.246485   113.705984
	   29 B(8,10,9)       =    109.687829    -0.000030    -0.776065   108.911765
	   30 B(8,10,14)      =    108.601494    -0.000238    -0.044201   108.557293
	   31 B(9,10,14)      =    108.646201    -0.000218    -0.233748   108.412453
	   32 B(10,14,11)     =    109.613022     0.000103     0.350997   109.964019
	   33 B(10,14,12)     =    109.706927     0.000222     0.811538   110.518465
	   34 B(10,14,13)     =    110.070347     0.000269     0.785755   110.856102
	   35 B(11,14,12)     =    109.225161    -0.000200    -0.685983   108.539178
	   36 B(11,14,13)     =    109.087897    -0.000208    -0.611859   108.476038
	   37 B(12,14,13)     =    109.118110    -0.000193    -0.697353   108.420757
	   38 D(1,4,7,5)      =   -179.685271     0.000040     0.554404  -179.130867
	   39 D(1,4,7,6)      =    -60.420130    -0.000029    -0.545036   -60.965165
	   40 D(1,4,7,10)     =     59.922179    -0.000003    -0.003014    59.919164
	   41 D(2,4,7,5)      =    -59.751669     0.000030     0.425489   -59.326180
	   42 D(2,4,7,6)      =     59.513472    -0.000039    -0.673951    58.839522
[...]
  CGR           7          0          1   5.362E-06
  CGR           8          0          1   1.149E-06
  CGR           9          1          0   1.518E-07

    CGRSolver converged.

  ==> DFCorrGrad: Density-Fitted Correlated Gradients <==

    OpenMP threads:              1
    Integrals threads:           1
    Memory (MB):               715
    Schwarz Cutoff:          0E+00
    Fitting Condition:       1E-12

   => Auxiliary Basis Set <=

  Basis Set: (AUG-CC-PVTZ AUX)
    Blend: AUG-CC-PVTZ-JKFIT
    Number of shells: 260
    Number of basis function: 876
    Number of Cartesian functions: 1074
    Spherical Harmonics?: true
    Max angular momentum: 4

	-----------------------------------------------------------
	 ==================> DF-MP2 Energies <==================== 
	-----------------------------------------------------------
	 Reference Energy          =    -157.3504090622746503 [Eh]
	 Singles Energy            =      -0.0000000000000001 [Eh]
	 Same-Spin Energy          =      -0.1659204893518361 [Eh]
	 Opposite-Spin Energy      =      -0.6405171295644225 [Eh]
	 Correlation Energy        =      -0.8064376189162588 [Eh]
	 Total Energy              =    -158.1568466811908991 [Eh]
	-----------------------------------------------------------
	 ================> DF-SCS-MP2 Energies <================== 
	-----------------------------------------------------------
	 SCS Same-Spin Scale       =       0.3333333333333333 [-]
	 SCS Opposite-Spin Scale   =       1.2000000000000000 [-]
	 SCS Same-Spin Energy      =      -0.0553068297839454 [Eh]
	 SCS Opposite-Spin Energy  =      -0.7686205554773070 [Eh]
	 SCS Correlation Energy    =      -0.8239273852612525 [Eh]
	 SCS Total Energy          =    -158.1743364475358931 [Eh]
	-----------------------------------------------------------


  -Total Gradient:
     Atom            X                  Y                   Z
    ------   -----------------  -----------------  -----------------
       1       -0.000005764148    -0.000019373598     0.000021275922
       2       -0.000010332207    -0.000010515350     0.000002443070
       3       -0.000016472763    -0.000013965702     0.000014774370
       4        0.000847514071     0.000257312693     0.004069686167
       5       -0.000014121497    -0.000041062394    -0.000015375266
       6       -0.000014161570     0.000035180209    -0.000019872084
       7       -0.000587938386    -0.000072221104    -0.007458870273
       8        0.000011208605    -0.000035262755     0.000019978465
       9       -0.000038131915     0.000020960922     0.000012969538
      10       -0.001433054829    -0.000722777190     0.007308235369
      11       -0.000014067900     0.000001999312    -0.000004113841
      12       -0.000015230498     0.000011502995    -0.000023718633
      13       -0.000019317132    -0.000000223471    -0.000017493924
      14        0.001309870170     0.000588445433    -0.003909918882


*** tstop() called on gpu-2-10.local at Wed Jun 14 15:20:34 2017
Module time:
	user time   =     469.78 seconds =       7.83 minutes
	system time =       3.75 seconds =       0.06 minutes
	total time  =        475 seconds =       7.92 minutes
Total time:
	user time   =    3323.68 seconds =      55.39 minutes
	system time =      26.86 seconds =       0.45 minutes
	total time  =       3357 seconds =      55.95 minutes

			-----------------------------------------
			 OPTKING 2.0: for geometry optimizations 
			  - R.A. King,  Bethel University        
			-----------------------------------------

	Previous internal coordinate definitions found.
	---Fragment 1 Geometry and Gradient---
	 H           1.1235740443        2.6871415791       -2.3758326625
	 H          -0.7160384005        4.7834054963       -0.5733058025
	 H           1.6460692464        2.9707454705        0.8931468260
	 C           0.1940408223        2.9404655180       -0.5571647976
	 H          -2.5654546711        1.2180277979        1.7920606271
	 H          -3.2783703990        1.0202916278       -1.4162397777
	 C          -1.7348638676        0.8731990794       -0.0634614084
	 H          -1.8661699789       -3.0407212647        1.0323851661
	 H          -0.8029702466       -2.5409256672       -2.0433924425
	 C          -0.6735721465       -1.8190755333       -0.1162406903
	 H           2.6470284308       -4.0250365534        0.7174328877
	 H           2.3280939899       -1.3315058456        2.6333534183
	 H           3.3192817465       -1.0207188989       -0.5226868455
	 C           2.0602782719       -2.0551176701        0.7253674955
	            -0.0000057641       -0.0000193736        0.0000212759
	            -0.0000103322       -0.0000105154        0.0000024431
	            -0.0000164728       -0.0000139657        0.0000147744
	             0.0008475141        0.0002573127        0.0040696862
	            -0.0000141215       -0.0000410624       -0.0000153753
	            -0.0000141616        0.0000351802       -0.0000198721
	            -0.0005879384       -0.0000722211       -0.0074588703
	             0.0000112086       -0.0000352628        0.0000199785
	            -0.0000381319        0.0000209609        0.0000129695
	            -0.0014330548       -0.0007227772        0.0073082354
	            -0.0000140679        0.0000019993       -0.0000041138
	            -0.0000152305        0.0000115030       -0.0000237186
	            -0.0000193171       -0.0000002235       -0.0000174939
	             0.0013098702        0.0005884454       -0.0039099189

	---Fragment 1 Intrafragment Coordinates---
	 - Coordinate -           - BOHR/RAD -       - ANG/DEG -
	 R(1,4)           =         2.058096	       1.089097
	 R(2,4)           =         2.055464	       1.087705
	 R(3,4)           =         2.052488	       1.086130
	 R(4,7)           =         2.870193	       1.518841
	 R(5,7)           =         2.061977	       1.091151
	 R(6,7)           =         2.057683	       1.088879
	 R(7,10)          =         2.894386	       1.531643
	 R(8,10)          =         2.057681	       1.088878
	 R(9,10)          =         2.061971	       1.091148
	 R(10,14)         =         2.870184	       1.518836
	 R(11,14)         =         2.055461	       1.087703
	 R(12,14)         =         2.058094	       1.089096
	 R(13,14)         =         2.052489	       1.086130
	 B(1,4,2)         =         1.879047	     107.661488
	 B(1,4,3)         =         1.882528	     107.860894
	 B(1,4,7)         =         1.946443	     111.522983
	 B(2,4,3)         =         1.881314	     107.791359
	 B(2,4,7)         =         1.927917	     110.461485
	 B(3,4,7)         =         1.943913	     111.378012
	 B(4,7,5)         =         1.880785	     107.761032
	 B(4,7,6)         =         1.917228	     109.849071
	 B(4,7,10)        =         2.004684	     114.859929
	 B(5,7,6)         =         1.851978	     106.110529
	 B(5,7,10)        =         1.896171	     108.642615
	 B(6,7,10)        =         1.906626	     109.241624
	 B(7,10,8)        =         1.906620	     109.241261
	 B(7,10,9)        =         1.896172	     108.642645
	 B(7,10,14)       =         2.004688	     114.860178
	 B(8,10,9)        =         1.851990	     106.111231
	 B(8,10,14)       =         1.917230	     109.849205
	 B(9,10,14)       =         1.880772	     107.760321
	 B(10,14,11)      =         1.927924	     110.461918
	 B(10,14,12)      =         1.946439	     111.522721
	 B(10,14,13)      =         1.943913	     111.378021
	 B(11,14,12)      =         1.879048	     107.661538
	 B(11,14,13)      =         1.881313	     107.791269
	 B(12,14,13)      =         1.882525	     107.860747
	 D(1,4,7,5)       =         3.123597	     178.968909
	 D(1,4,7,6)       =        -1.149373	     -65.854236
	 D(1,4,7,10)      =         1.007874	      57.746916
	 D(2,4,7,5)       =        -1.070676	     -61.345225
	 D(2,4,7,6)       =         0.939539	      53.831630
	 D(2,4,7,10)      =         3.096786	     177.432782
	 D(3,4,7,5)       =         1.019433	      58.409189
	 D(3,4,7,6)       =         3.029648	     173.586044
	 D(3,4,7,10)      =        -1.096290	     -62.812804
	 D(4,7,10,8)      =         2.700334	     154.717749
	 D(4,7,10,9)      =        -1.569828	     -89.944514
	 D(4,7,10,14)     =         0.537455	      30.793932
	 D(5,7,10,8)      =         0.593038	      33.978576
	 D(5,7,10,9)      =         2.606061	     149.316313
	 D(5,7,10,14)     =        -1.569841	     -89.945241
	 D(6,7,10,8)      =        -1.419974	     -81.358506
	 D(6,7,10,9)      =         0.593049	      33.979231
	 D(6,7,10,14)     =         2.700333	     154.717676
	 D(7,10,14,11)    =         3.096761	     177.431318
	 D(7,10,14,12)    =         1.007845	      57.745272
	 D(7,10,14,13)    =        -1.096313	     -62.814087
	 D(8,10,14,11)    =         0.939517	      53.830356
	 D(8,10,14,12)    =        -1.149399	     -65.855690
	 D(8,10,14,13)    =         3.029629	     173.584951
	 D(9,10,14,11)    =        -1.070707	     -61.347010
	 D(9,10,14,12)    =         3.123562	     178.966944
	 D(9,10,14,13)    =         1.019405	      58.407585

	Current energy   :      -158.1568466812

	Energy change for the previous step:
		Projected    :        -0.0000869296
		Actual       :        -0.0000219998

	Performing BFGS update.
	Previous computed or guess Hessian on step 1.
	Steps to be used in Hessian update: 6 5
	Adding user-defined constraint: Fragment 1; Coordinate 49:
		Value =     0.537455; Fixed value    =     0.523600
		Force =    -0.009006; Force constant =     0.650000
	Removing off-diagonal coupling between coordinate 49 and others.
	Taking RFO optimization step.
	Going to follow RFO solution 1.
	Rejecting RFO root 1 because normalization gives large value.
	Rejecting RFO root 2 because normalization gives large value.
	Using RFO vector 3.
	Norm of target step-size    0.00102
	Projected energy change by RFO approximation:        -0.0000000951

	Back-transformation to cartesian coordinates...
	Successfully converged to displaced geometry.

	--- Internal Coordinate Step in ANG or DEG, aJ/ANG or AJ/DEG ---
	 ---------------------------------------------------------------------------
	   Coordinate                Previous        Force       Change         New 
	   ----------                --------       ------       ------       ------
	    1 R(1,4)          =      1.089097     0.000157     0.000027     1.089125
	    2 R(2,4)          =      1.087705     0.000040    -0.000007     1.087698
	    3 R(3,4)          =      1.086130     0.000012     0.000014     1.086144
	    4 R(4,7)          =      1.518841     0.000043    -0.000072     1.518768
	    5 R(5,7)          =      1.091151     0.000124    -0.000010     1.091141
	    6 R(6,7)          =      1.088879    -0.000216    -0.000039     1.088840
	    7 R(7,10)         =      1.531643     0.000072    -0.000042     1.531601
	    8 R(8,10)         =      1.088878    -0.000211    -0.000038     1.088839
	    9 R(9,10)         =      1.091148     0.000141    -0.000008     1.091140
	   10 R(10,14)        =      1.518836     0.000065    -0.000063     1.518773
	   11 R(11,14)        =      1.087703     0.000049    -0.000005     1.087698
	   12 R(12,14)        =      1.089096     0.000164     0.000028     1.089124
	   13 R(13,14)        =      1.086130     0.000011     0.000014     1.086144
	   14 B(1,4,2)        =    107.661488    -0.000001    -0.013095   107.648393
	   15 B(1,4,3)        =    107.860894    -0.000001    -0.008145   107.852749
	   16 B(1,4,7)        =    111.522983     0.000001     0.002291   111.525274
	   17 B(2,4,3)        =    107.791359    -0.000001    -0.006737   107.784622
	   18 B(2,4,7)        =    110.461485     0.000001     0.002537   110.464022
	   19 B(3,4,7)        =    111.378012     0.000002     0.021512   111.399524
	   20 B(4,7,5)        =    107.761032    -0.000022     0.002257   107.763289
	   21 B(4,7,6)        =    109.849071     0.000018    -0.009059   109.840012
	   22 B(4,7,10)       =    114.859929     0.000005     0.005401   114.865330
	   23 B(5,7,6)        =    106.110529     0.000001     0.003102   106.113632
	   24 B(5,7,10)       =    108.642615     0.000001    -0.005299   108.637316
	   25 B(6,7,10)       =    109.241624    -0.000004     0.003486   109.245110
	   26 B(7,10,8)       =    109.241261    -0.000004     0.003074   109.244335
	   27 B(7,10,9)       =    108.642645     0.000001    -0.005085   108.637560
	   28 B(7,10,14)      =    114.860178     0.000004     0.005200   114.865378
	   29 B(8,10,9)       =    106.111231     0.000001     0.002554   106.113785
	   30 B(8,10,14)      =    109.849205     0.000018    -0.009161   109.840044
	   31 B(9,10,14)      =    107.760321    -0.000022     0.003299   107.763620
	   32 B(10,14,11)     =    110.461918     0.000001     0.002320   110.464238
	   33 B(10,14,12)     =    111.522721     0.000001     0.002385   111.525106
	   34 B(10,14,13)     =    111.378021     0.000002     0.021500   111.399521
	   35 B(11,14,12)     =    107.661538    -0.000001    -0.013112   107.648425
	   36 B(11,14,13)     =    107.791269    -0.000001    -0.006655   107.784614
	   37 B(12,14,13)     =    107.860747    -0.000001    -0.008068   107.852679
	   38 D(1,4,7,5)      =    178.968909    -0.000001     0.001136   178.970045
	   39 D(1,4,7,6)      =    -65.854236    -0.000001     0.001309   -65.852927
	   40 D(1,4,7,10)     =     57.746916     0.000002     0.002730    57.749646
	   41 D(2,4,7,5)      =    -61.345225    -0.000001    -0.012153   -61.357378
	   42 D(2,4,7,6)      =     53.831630    -0.000001    -0.011980    53.819650
	   43 D(2,4,7,10)     =    177.432782     0.000002    -0.010559   177.422223
	   44 D(3,4,7,5)      =     58.409189    -0.000001    -0.004874    58.404315
	   45 D(3,4,7,6)      =    173.586044    -0.000001    -0.004701   173.581343
	   46 D(3,4,7,10)     =    -62.812804     0.000002    -0.003280   -62.816084
	   47 D(4,7,10,8)     =    154.717749    -0.000005    -0.005154   154.712595
	   48 D(4,7,10,9)     =    -89.944514    -0.000005    -0.003240   -89.947755
	   49 D(4,7,10,14)    =     30.793932    -0.000011     0.000723    30.794655
	   50 D(5,7,10,8)     =     33.978576     0.000000    -0.007751    33.970825
	   51 D(5,7,10,9)     =    149.316313     0.000000    -0.005837   149.310475
	   52 D(5,7,10,14)    =    -89.945241    -0.000005    -0.001874   -89.947115
	   53 D(6,7,10,8)     =    -81.358506     0.000000    -0.010421   -81.368927
	   54 D(6,7,10,9)     =     33.979231     0.000000    -0.008508    33.970723
	   55 D(6,7,10,14)    =    154.717676    -0.000005    -0.004544   154.713132
	   56 D(7,10,14,11)   =    177.431318     0.000002    -0.012438   177.418880
	   57 D(7,10,14,12)   =     57.745272     0.000002     0.000956    57.746228
	   58 D(7,10,14,13)   =    -62.814087     0.000002    -0.005208   -62.819295
	   59 D(8,10,14,11)   =     53.830356    -0.000001    -0.013081    53.817275
	   60 D(8,10,14,12)   =    -65.855690    -0.000001     0.000313   -65.855377
	   61 D(8,10,14,13)   =    173.584951    -0.000001    -0.005851   173.579100
	   62 D(9,10,14,11)   =    -61.347010    -0.000001    -0.013122   -61.360132
	   63 D(9,10,14,12)   =    178.966944    -0.000001     0.000272   178.967215
	   64 D(9,10,14,13)   =     58.407585    -0.000001    -0.005892    58.401693
	 ---------------------------------------------------------------------------
	Successfully symmetrized geometry.
	 Forces used to impose fixed constraints are not included.
	  Forces zeroed: 49 

  ==> Convergence Check <==

  Measures of convergence in internal coordinates in au.
  Criteria marked as inactive (o), active & met (*), and active & unmet ( ).
  ---------------------------------------------------------------------------------------------
   Step     Total Energy     Delta E     MAX Force     RMS Force      MAX Disp      RMS Disp   
  ---------------------------------------------------------------------------------------------
    Convergence Criteria    1.00e-06 *    3.00e-04 *             o    1.20e-03 *             o
  ---------------------------------------------------------------------------------------------
      7    -158.15684668   -2.20e-05      2.96e-04 *    1.08e-04 o    3.75e-04 *    1.28e-04 o  ~
  ---------------------------------------------------------------------------------------------


  **** Optimization is complete! (in 7 steps) ****

  ==> Optimization Summary <==

  Measures of convergence in internal coordinates in au.
  --------------------------------------------------------------------------------------------------------------- ~
   Step         Total Energy             Delta E       MAX Force       RMS Force        MAX Disp        RMS Disp  ~
  --------------------------------------------------------------------------------------------------------------- ~
      1    -158.148404283903   -158.148404283903      0.04105342      0.01021710      0.05159225      0.01262907  ~
      2    -158.153768277310     -0.005363993408      0.01171798      0.00415388      0.02585271      0.01254283  ~
      3    -158.155852625431     -0.002084348120      0.00495500      0.00156083      0.04275433      0.01250451  ~
      4    -158.156549438688     -0.000696813258      0.00186187      0.00060256      0.04094613      0.01249309  ~
      5    -158.156774080957     -0.000224642269      0.00046962      0.00018500      0.02613222      0.01249950  ~
      6    -158.156824681375     -0.000050600418      0.00031057      0.00010195      0.01463078      0.00737264  ~
      7    -158.156846681191     -0.000021999816      0.00061429      0.00013292      0.00037545      0.00012781  ~
  --------------------------------------------------------------------------------------------------------------- ~

	Writing optimization data to binary file.
	Final energy is   -158.1568466811909
	Final (previous) structure:
	Cartesian Geometry (in Angstrom)
	    H     0.5945697764   1.4219740799  -1.2572364964
	    H    -0.3789112020   2.5312691681  -0.3033803642
	    H     0.8710623290   1.5720507955   0.4726329442
	    C     0.1026819807   1.5560273348  -0.2948389123
	    H    -1.3575801416   0.6445525501   0.9483176403
	    H    -1.7348388965   0.5399150755  -0.7494418123
	    C    -0.9180504187   0.4620770514  -0.0335823310
	    H    -0.9875346202  -1.6090803910   0.5463147004
	    H    -0.4249135537  -1.3445999518  -1.0813167088
	    C    -0.3564390283  -0.9626133129  -0.0615119240
	    H     1.4007471161  -2.1299576078   0.3796491329
	    H     1.2319742789  -0.7046025466   1.3935106111
	    H     1.7564882492  -0.5401411777  -0.2765939659
	    C     1.0902523049  -1.0875214320   0.3838479465
	Saving final (previous) structure.
			--------------------------
			 OPTKING Finished Execution 
			--------------------------

    Final optimized geometry and variables:
    Molecular point group: c1
    Full point group: C1

    Geometry (in Angstrom), charge = 0, multiplicity = 1:

    H            0.594569776392     1.421974079896    -1.257236496437
    H           -0.378911202026     2.531269168065    -0.303380364247
    H            0.871062328978     1.572050795485     0.472632944232
    C            0.102681980688     1.556027334753    -0.294838912308
    H           -1.357580141639     0.644552550077     0.948317640278
    H           -1.734838896477     0.539915075542    -0.749441812280
    C           -0.918050418721     0.462077051400    -0.033582330957
    H           -0.987534620201    -1.609080390978     0.546314700396
    H           -0.424913553684    -1.344599951790    -1.081316708755
    C           -0.356439028266    -0.962613312930    -0.061511923998
    H            1.400747116062    -2.129957607804     0.379649132883
    H            1.231974278896    -0.704602546592     1.393510611147
    H            1.756488249162    -0.540141177675    -0.276593965881
    C            1.090252304866    -1.087521431965     0.383847946483

	Cleaning optimization helper files.

*** Psi4 exiting successfully. Buy a developer a beer!
