
    -----------------------------------------------------------------------
          Psi4: An Open-Source Ab Initio Electronic Structure Package
                               Psi4 1.1 release

                         Git: Rev {HEAD} add49b9 


    R. M. Parrish, L. A. Burns, D. G. A. Smith, A. C. Simmonett,
    A. E. DePrince III, E. G. Hohenstein, U. Bozkaya, A. Yu. Sokolov,
    R. Di Remigio, R. M. Richard, J. F. Gonthier, A. M. James,
    H. R. McAlexander, A. Kumar, M. Saitow, X. Wang, B. P. Pritchard,
    P. Verma, H. F. Schaefer III, K. Patkowski, R. A. King, E. F. Valeev,
    F. A. Evangelista, J. M. Turney, T. D. Crawford, and C. D. Sherrill,
    J. Chem. Theory Comput. in press (2017).
    (doi: 10.1021/acs.jctc.7b00174)

    -----------------------------------------------------------------------


    Psi4 started on: Wednesday, 14 June 2017 02:53PM

    Process ID:  17327
    PSIDATADIR: /cbio/jclab/home/chayas/anaconda/envs/py35/share/psi4
    Memory:     500.0 MiB
    Threads:    1
    
  ==> Input File <==

--------------------------------------------------------------------------

memory 1000 mb

molecule butane {
  symmetry C1
  0 1 
  H      1.604   0.760   -8.260
  H      1.745   2.388   -8.880
  H      2.043   1.024   -9.930
  C      2.142   1.395   -8.932
  H      4.169   2.051   -9.210
  H      3.731   1.788   -7.539
  C      3.631   1.416   -8.537
  H      3.665   -0.647   -7.940
  H      4.104   -0.384   -9.610
  C      4.203   -0.012   -8.612
  H      6.088   -0.983   -8.270
  H      5.791   0.381   -7.220
  H      6.230   0.644   -8.890
  C      5.691   0.009   -8.218
  units Angstrom
}

dih_string = "7 10 14 13 300"
set optking fixed_dihedral = $dih_string

optimize('MP2/aug-cc-pvtz')
--------------------------------------------------------------------------

  Memory set to 953.674 MiB by Python driver.
gradient() will perform analytic gradient computation.

*** tstart() called on gpu-2-9.local
*** at Wed Jun 14 14:53:30 2017

    SCF Algorithm Type (re)set to DF.

*** tstart() called on gpu-2-9.local
*** at Wed Jun 14 14:53:30 2017

   => Loading Basis Set <=

    Name: AUG-CC-PVTZ
    Role: ORBITAL
    Keyword: BASIS
    atoms 1-3, 5-6, 8-9, 11-13 entry H          line    34 file /cbio/jclab/home/chayas/anaconda/envs/py35/share/psi4/basis/aug-cc-pvtz.gbs 
    atoms 4, 7, 10, 14         entry C          line   221 file /cbio/jclab/home/chayas/anaconda/envs/py35/share/psi4/basis/aug-cc-pvtz.gbs 


         ---------------------------------------------------------
                                   SCF
            by Justin Turney, Rob Parrish, and Andy Simmonett
                              RHF Reference
                        1 Threads,    953 MiB Core
         ---------------------------------------------------------

  ==> Geometry <==

    Molecular point group: c1
    Full point group: C1

    Geometry (in Angstrom), charge = 0, multiplicity = 1:

       Center              X                  Y                   Z               Mass       
    ------------   -----------------  -----------------  -----------------  -----------------
           H         -2.312793382205     0.057965294236     0.314776029323     1.007825032070
           H         -2.171793382205     1.685965294236    -0.305223970677     1.007825032070
           H         -1.873793382205     0.321965294236    -1.355223970677     1.007825032070
           C         -1.774793382205     0.692965294236    -0.357223970677    12.000000000000
           H          0.252206617795     1.348965294236    -0.635223970677     1.007825032070
           H         -0.185793382205     1.085965294236     1.035776029323     1.007825032070
           C         -0.285793382205     0.713965294236     0.037776029323    12.000000000000
           H         -0.251793382205    -1.349034705764     0.634776029323     1.007825032070
           H          0.187206617795    -1.086034705764    -1.035223970677     1.007825032070
           C          0.286206617795    -0.714034705764    -0.037223970677    12.000000000000
           H          2.171206617795    -1.685034705764     0.304776029323     1.007825032070
           H          1.874206617795    -0.321034705764     1.354776029323     1.007825032070
           H          2.313206617795    -0.058034705764    -0.315223970677     1.007825032070
           C          1.774206617795    -0.693034705764     0.356776029323    12.000000000000

  Running in c1 symmetry.

  Rotational constants: A =      0.76949  B =      0.12464  C =      0.11638 [cm^-1]
  Rotational constants: A =  23068.84256  B =   3736.71882  C =   3488.92174 [MHz]
  Nuclear repulsion =  131.819965675319082

  Charge       = 0
  Multiplicity = 1
  Electrons    = 34
  Nalpha       = 17
  Nbeta        = 17

  ==> Algorithm <==

  SCF Algorithm Type is DF.
  DIIS enabled.
  MOM disabled.
  Fractional occupation disabled.
  Guess Type is SAD.
  Energy threshold   = 1.00e-10
  Density threshold  = 1.00e-10
  Integral threshold = 0.00e+00

  ==> Primary Basis <==

  Basis Set: AUG-CC-PVTZ
    Blend: AUG-CC-PVTZ
    Number of shells: 146
    Number of basis function: 414
    Number of Cartesian functions: 470
    Spherical Harmonics?: true
    Max angular momentum: 3

   => Loading Basis Set <=

    Name: (AUG-CC-PVTZ AUX)
    Role: JKFIT
    Keyword: DF_BASIS_SCF
    atoms 1-3, 5-6, 8-9, 11-13 entry H          line    69 file /cbio/jclab/home/chayas/anaconda/envs/py35/share/psi4/basis/aug-cc-pvtz-jkfit.gbs 
    atoms 4, 7, 10, 14         entry C          line   161 file /cbio/jclab/home/chayas/anaconda/envs/py35/share/psi4/basis/aug-cc-pvtz-jkfit.gbs 

  ==> Pre-Iterations <==

   -------------------------------------------------------
    Irrep   Nso     Nmo     Nalpha   Nbeta   Ndocc  Nsocc
   -------------------------------------------------------
     A        414     414       0       0       0       0
   -------------------------------------------------------
    Total     414     414      17      17      17       0
   -------------------------------------------------------

  ==> Integral Setup <==

  ==> DFJK: Density-Fitted J/K Matrices <==

    J tasked:                  Yes
    K tasked:                  Yes
    wK tasked:                  No
    OpenMP threads:              1
    Integrals threads:           1
    Memory (MB):               715
    Algorithm:                Core
    Integral Cache:           NONE
    Schwarz Cutoff:          1E-12
    Fitting Condition:       1E-12

   => Auxiliary Basis Set <=

  Basis Set: (AUG-CC-PVTZ AUX)
    Blend: AUG-CC-PVTZ-JKFIT
    Number of shells: 260
    Number of basis function: 876
    Number of Cartesian functions: 1074
    Spherical Harmonics?: true
    Max angular momentum: 4

  Minimum eigenvalue in the overlap matrix is 7.7084675764E-06.
  Using Symmetric Orthogonalization.

  SCF Guess: Superposition of Atomic Densities via on-the-fly atomic UHF.

  ==> Iterations <==

                           Total Energy        Delta E     RMS |[F,P]|

   @DF-RHF iter   0:  -158.77595246801565   -1.58776e+02   9.13315e-03 
   @DF-RHF iter   1:  -157.21409713129432    1.56186e+00   1.11559e-03 
   @DF-RHF iter   2:  -157.33196936067287   -1.17872e-01   4.30772e-04 DIIS
   @DF-RHF iter   3:  -157.35027183561192   -1.83025e-02   1.24841e-04 DIIS
   @DF-RHF iter   4:  -157.35272703953700   -2.45520e-03   2.19863e-05 DIIS
   @DF-RHF iter   5:  -157.35280802096344   -8.09814e-05   7.22189e-06 DIIS
   @DF-RHF iter   6:  -157.35281605685270   -8.03589e-06   1.39584e-06 DIIS
   @DF-RHF iter   7:  -157.35281647078702   -4.13934e-07   2.28329e-07 DIIS
   @DF-RHF iter   8:  -157.35281648333327   -1.25463e-08   3.80259e-08 DIIS
   @DF-RHF iter   9:  -157.35281648364284   -3.09569e-10   8.44367e-09 DIIS
   @DF-RHF iter  10:  -157.35281648365856   -1.57172e-11   1.60669e-09 DIIS
   @DF-RHF iter  11:  -157.35281648365932   -7.67386e-13   2.77635e-10 DIIS
   @DF-RHF iter  12:  -157.35281648366043   -1.10845e-12   9.23978e-11 DIIS

  ==> Post-Iterations <==

    Orbital Energies (a.u.)
    -----------------------

    Doubly Occupied:                                                      

       1A    -11.207096     2A    -11.206486     3A    -11.198781  
       4A    -11.198677     5A     -1.070678     6A     -0.981225  
       7A     -0.861658     8A     -0.794820     9A     -0.647647  
      10A     -0.587670    11A     -0.575077    12A     -0.570537  
      13A     -0.514792    14A     -0.503437    15A     -0.476302  
      16A     -0.468557    17A     -0.441795  

    Virtual:                                                              

      18A      0.032262    19A      0.036998    20A      0.039682  
      21A      0.040948    22A      0.056465    23A      0.058496  
      24A      0.059614    25A      0.061200    26A      0.081929  
      27A      0.085896    28A      0.095901    29A      0.112328  
      30A      0.123358    31A      0.130755    32A      0.135488  
      33A      0.142008    34A      0.143850    35A      0.147019  
      36A      0.148463    37A      0.158856    38A      0.159785  
      39A      0.168093    40A      0.170346    41A      0.202248  
      42A      0.209025    43A      0.212574    44A      0.230037  
      45A      0.249611    46A      0.251446    47A      0.251930  
      48A      0.270434    49A      0.274777    50A      0.281574  
      51A      0.282084    52A      0.315979    53A      0.319119  
      54A      0.332570    55A      0.337907    56A      0.339469  
      57A      0.347381    58A      0.357270    59A      0.358350  
      60A      0.359657    61A      0.373970    62A      0.374164  
      63A      0.384448    64A      0.390595    65A      0.391121  
      66A      0.391623    67A      0.395159    68A      0.402721  
      69A      0.409404    70A      0.414821    71A      0.424834  
      72A      0.430965    73A      0.443150    74A      0.450058  
      75A      0.459407    76A      0.462175    77A      0.463269  
      78A      0.471974    79A      0.477018    80A      0.477705  
      81A      0.480909    82A      0.491327    83A      0.498764  
      84A      0.508235    85A      0.508359    86A      0.509819  
      87A      0.522132    88A      0.523941    89A      0.526814  
      90A      0.537983    91A      0.546499    92A      0.562307  
      93A      0.564510    94A      0.578348    95A      0.585449  
      96A      0.597719    97A      0.598319    98A      0.616953  
      99A      0.623322   100A      0.640224   101A      0.642566  
     102A      0.650242   103A      0.688259   104A      0.694384  
     105A      0.703230   106A      0.703279   107A      0.764538  
     108A      0.776307   109A      0.798192   110A      0.818877  
     111A      0.823594   112A      0.824959   113A      0.840976  
     114A      0.843581   115A      0.844081   116A      0.854490  
     117A      0.861200   118A      0.865419   119A      0.888006  
     120A      0.891229   121A      0.895256   122A      0.904828  
     123A      0.916809   124A      0.918597   125A      0.922927  
     126A      0.934528   127A      0.939855   128A      0.948422  
     129A      0.956670   130A      0.958200   131A      0.964001  
     132A      0.965816   133A      0.987039   134A      0.997055  
     135A      0.998082   136A      1.003546   137A      1.009878  
     138A      1.028127   139A      1.046788   140A      1.049567  
     141A      1.073305   142A      1.081356   143A      1.098267  
     144A      1.102800   145A      1.110538   146A      1.125714  
     147A      1.133430   148A      1.134066   149A      1.135345  
     150A      1.161621   151A      1.163837   152A      1.171296  
     153A      1.180355   154A      1.196296   155A      1.207789  
     156A      1.208687   157A      1.229058   158A      1.251380  
     159A      1.253145   160A      1.260958   161A      1.264158  
     162A      1.268568   163A      1.278530   164A      1.281832  
     165A      1.284308   166A      1.297208   167A      1.316479  
     168A      1.326298   169A      1.348236   170A      1.359843  
     171A      1.361068   172A      1.367704   173A      1.385310  
     174A      1.427039   175A      1.431940   176A      1.438285  
     177A      1.466932   178A      1.483508   179A      1.497581  
     180A      1.510873   181A      1.534148   182A      1.537028  
     183A      1.546792   184A      1.554702   185A      1.579153  
     186A      1.581256   187A      1.602559   188A      1.608495  
     189A      1.618010   190A      1.647470   191A      1.648286  
     192A      1.652172   193A      1.684557   194A      1.686816  
     195A      1.701435   196A      1.703722   197A      1.705356  
     198A      1.713633   199A      1.731480   200A      1.746278  
     201A      1.755346   202A      1.756481   203A      1.758648  
     204A      1.771901   205A      1.777900   206A      1.787054  
     207A      1.794431   208A      1.795120   209A      1.832248  
     210A      1.856665   211A      1.864022   212A      1.880829  
     213A      1.881242   214A      1.897196   215A      1.917861  
     216A      1.920731   217A      1.971453   218A      1.976409  
     219A      1.983699   220A      1.986506   221A      1.990679  
     222A      1.991853   223A      2.029809   224A      2.055540  
     225A      2.063338   226A      2.077228   227A      2.100580  
     228A      2.105681   229A      2.155250   230A      2.157463  
     231A      2.173805   232A      2.178808   233A      2.191138  
     234A      2.206117   235A      2.243768   236A      2.254866  
     237A      2.265302   238A      2.296448   239A      2.310733  
     240A      2.327260   241A      2.330577   242A      2.338952  
     243A      2.340165   244A      2.349730   245A      2.381627  
     246A      2.404220   247A      2.433840   248A      2.461008  
     249A      2.469758   250A      2.478379   251A      2.498447  
     252A      2.544431   253A      2.611245   254A      2.611552  
     255A      2.657694   256A      2.683588   257A      2.684975  
     258A      2.883231   259A      2.892147   260A      3.005170  
     261A      3.232477   262A      3.255082   263A      3.264466  
     264A      3.380327   265A      3.417145   266A      3.419279  
     267A      3.455301   268A      3.465665   269A      3.478440  
     270A      3.486182   271A      3.518493   272A      3.534726  
     273A      3.557100   274A      3.570971   275A      3.595972  
     276A      3.597313   277A      3.621074   278A      3.675143  
     279A      3.690917   280A      3.694760   281A      3.722205  
     282A      3.723435   283A      3.727294   284A      3.737126  
     285A      3.754897   286A      3.757009   287A      3.793714  
     288A      3.798331   289A      3.809342   290A      3.813282  
     291A      3.839520   292A      3.871892   293A      3.877086  
     294A      3.885655   295A      3.903954   296A      3.911849  
     297A      3.931181   298A      3.949929   299A      3.951956  
     300A      4.000859   301A      4.013414   302A      4.014117  
     303A      4.020972   304A      4.026104   305A      4.043638  
     306A      4.055171   307A      4.058100   308A      4.076339  
     309A      4.150615   310A      4.167929   311A      4.211195  
     312A      4.218472   313A      4.231289   314A      4.253660  
     315A      4.254433   316A      4.273731   317A      4.278050  
     318A      4.288930   319A      4.309720   320A      4.316226  
     321A      4.357016   322A      4.360934   323A      4.371864  
     324A      4.403932   325A      4.428755   326A      4.433790  
     327A      4.546557   328A      4.557924   329A      4.581454  
     330A      4.586020   331A      4.639045   332A      4.664268  
     333A      4.693484   334A      4.704232   335A      4.743702  
     336A      4.743988   337A      4.749603   338A      4.751289  
     339A      4.760639   340A      4.803914   341A      4.820718  
     342A      4.862893   343A      4.870474   344A      4.882573  
     345A      4.884249   346A      4.901133   347A      4.918224  
     348A      4.954278   349A      4.975051   350A      4.992733  
     351A      5.051452   352A      5.051781   353A      5.080820  
     354A      5.102165   355A      5.126958   356A      5.185886  
     357A      5.194512   358A      5.218522   359A      5.243586  
     360A      5.244096   361A      5.249425   362A      5.268098  
     363A      5.277412   364A      5.282582   365A      5.288995  
     366A      5.402367   367A      5.407479   368A      5.412924  
     369A      5.428448   370A      5.439155   371A      5.450164  
     372A      5.459528   373A      5.465547   374A      5.508247  
     375A      5.565095   376A      5.599971   377A      5.624208  
     378A      5.634759   379A      5.688222   380A      5.689933  
     381A      5.697453   382A      5.743878   383A      5.771982  
     384A      5.804576   385A      5.828627   386A      5.891557  
     387A      5.902875   388A      5.924953   389A      5.949021  
     390A      6.035237   391A      6.092375   392A      6.150573  
     393A      6.163633   394A      6.171190   395A      6.255723  
     396A      6.264545   397A      6.283584   398A      6.302649  
     399A      6.310046   400A      6.364318   401A      6.393653  
     402A      6.447065   403A      6.547367   404A      6.556711  
     405A      6.754387   406A      6.782999   407A      6.822013  
     408A      6.839128   409A      6.865335   410A      6.984115  
     411A     17.988374   412A     18.319679   413A     18.438350  
     414A     18.887577  

    Final Occupation by Irrep:
              A 
    DOCC [    17 ]

  Energy converged.

  @DF-RHF Final Energy:  -157.35281648366043

   => Energetics <=

    Nuclear Repulsion Energy =            131.8199656753190823
    One-Electron Energy =                -471.7350949662942412
    Two-Electron Energy =                 182.5623128073147541
    DFT Exchange-Correlation Energy =       0.0000000000000000
    Empirical Dispersion Energy =           0.0000000000000000
    PCM Polarization Energy =               0.0000000000000000
    EFP Energy =                            0.0000000000000000
    Total Energy =                       -157.3528164836604333



Properties will be evaluated at   0.000000,   0.000000,   0.000000 Bohr

Properties computed using the SCF density matrix

  Nuclear Dipole Moment: (a.u.)
     X:     0.0019      Y:     0.0015      Z:    -0.0012

  Electronic Dipole Moment: (a.u.)
     X:    -0.0018      Y:    -0.0022      Z:     0.0011

  Dipole Moment: (a.u.)
     X:     0.0001      Y:    -0.0006      Z:    -0.0001     Total:     0.0007

  Dipole Moment: (Debye)
     X:     0.0004      Y:    -0.0016      Z:    -0.0002     Total:     0.0017


*** tstop() called on gpu-2-9.local at Wed Jun 14 14:55:06 2017
Module time:
	user time   =      94.92 seconds =       1.58 minutes
	system time =       0.56 seconds =       0.01 minutes
	total time  =         96 seconds =       1.60 minutes
Total time:
	user time   =      94.93 seconds =       1.58 minutes
	system time =       0.56 seconds =       0.01 minutes
	total time  =         96 seconds =       1.60 minutes

  //>>>>>>>>>>>>>>>>>>>>>>>>>>>>>>>>>>>//
  //               DFMP2               //
  //<<<<<<<<<<<<<<<<<<<<<<<<<<<<<<<<<<<//

   => Loading Basis Set <=

    Name: (AUG-CC-PVTZ AUX)
    Role: RIFIT
    Keyword: DF_BASIS_MP2
    atoms 1-3, 5-6, 8-9, 11-13 entry H          line    29 file /cbio/jclab/home/chayas/anaconda/envs/py35/share/psi4/basis/aug-cc-pvtz-ri.gbs 
    atoms 4, 7, 10, 14         entry C          line   147 file /cbio/jclab/home/chayas/anaconda/envs/py35/share/psi4/basis/aug-cc-pvtz-ri.gbs 

	 --------------------------------------------------------
	                          DF-MP2                         
	      2nd-Order Density-Fitted Moller-Plesset Theory     
	              RMP2 Wavefunction,   1 Threads             
	                                                         
	        Rob Parrish, Justin Turney, Andy Simmonett,      
	           Ed Hohenstein, and C. David Sherrill          
	 --------------------------------------------------------

   => Auxiliary Basis Set <=

  Basis Set: (AUG-CC-PVTZ AUX)
    Blend: AUG-CC-PVTZ-RI
    Number of shells: 252
    Number of basis function: 884
    Number of Cartesian functions: 1094
    Spherical Harmonics?: true
    Max angular momentum: 4

	 --------------------------------------------------------
	                 NBF =   414, NAUX =   884
	 --------------------------------------------------------
	   CLASS    FOCC     OCC    AOCC    AVIR     VIR    FVIR
	   PAIRS       0      17      17     397     397       0
	 --------------------------------------------------------


         ------------------------------------------------------------
                                     CPHF                           
                                  Rob Parrish                       
         ------------------------------------------------------------

  ==> Geometry <==

    Molecular point group: c1
    Full point group: C1

    Geometry (in Angstrom), charge = 0, multiplicity = 1:

       Center              X                  Y                   Z               Mass       
    ------------   -----------------  -----------------  -----------------  -----------------
           H         -2.312793382205     0.057965294236     0.314776029323     1.007825032070
           H         -2.171793382205     1.685965294236    -0.305223970677     1.007825032070
           H         -1.873793382205     0.321965294236    -1.355223970677     1.007825032070
           C         -1.774793382205     0.692965294236    -0.357223970677    12.000000000000
           H          0.252206617795     1.348965294236    -0.635223970677     1.007825032070
           H         -0.185793382205     1.085965294236     1.035776029323     1.007825032070
           C         -0.285793382205     0.713965294236     0.037776029323    12.000000000000
           H         -0.251793382205    -1.349034705764     0.634776029323     1.007825032070
           H          0.187206617795    -1.086034705764    -1.035223970677     1.007825032070
           C          0.286206617795    -0.714034705764    -0.037223970677    12.000000000000
           H          2.171206617795    -1.685034705764     0.304776029323     1.007825032070
           H          1.874206617795    -0.321034705764     1.354776029323     1.007825032070
           H          2.313206617795    -0.058034705764    -0.315223970677     1.007825032070
           C          1.774206617795    -0.693034705764     0.356776029323    12.000000000000

  Nuclear repulsion =  131.819965675319082
  Reference energy  = -157.352816483660433

  ==> Basis Set <==

  Basis Set: AUG-CC-PVTZ
    Blend: AUG-CC-PVTZ
    Number of shells: 146
    Number of basis function: 414
    Number of Cartesian functions: 470
    Spherical Harmonics?: true
    Max angular momentum: 3

  ==> CGRSolver (by Rob Parrish) <==

   Number of roots    =         1
   Preconditioning    =    JACOBI
   Convergence cutoff =     1E-06
   Maximum iterations =       100

  ==> CPHFRHamiltonian (by Rob Parrish) <== 

  ==> DFJK: Density-Fitted J/K Matrices <==

    J tasked:                  Yes
    K tasked:                  Yes
    wK tasked:                  No
    OpenMP threads:              1
    Integrals threads:           1
    Memory (MB):               715
    Algorithm:                Core
    Integral Cache:           NONE
    Schwarz Cutoff:          1E-12
    Fitting Condition:       1E-12

   => Auxiliary Basis Set <=

  Basis Set: (AUG-CC-PVTZ AUX)
    Blend: AUG-CC-PVTZ-JKFIT
    Number of shells: 260
    Number of basis function: 876
    Number of Cartesian functions: 1074
    Spherical Harmonics?: true
    Max angular momentum: 4

  ==> CPHF Iterations <==

  => Iterations <=

             Iter  Converged  Remaining    Residual
  CGR           1          0          1   8.153E-02
  CGR           2          0          1   1.302E-02
  CGR           3          0          1   3.409E-03
  CGR           4          0          1   8.036E-04
  CGR           5          0          1   1.177E-04
  CGR           6          0          1   2.092E-05
  CGR           7          0          1   3.604E-06
  CGR           8          1          0   7.894E-07

    CGRSolver converged.

  ==> DFCorrGrad: Density-Fitted Correlated Gradients <==

    OpenMP threads:              1
    Integrals threads:           1
    Memory (MB):               715
    Schwarz Cutoff:          0E+00
    Fitting Condition:       1E-12

   => Auxiliary Basis Set <=

  Basis Set: (AUG-CC-PVTZ AUX)
    Blend: AUG-CC-PVTZ-JKFIT
    Number of shells: 260
    Number of basis function: 876
    Number of Cartesian functions: 1074
    Spherical Harmonics?: true
    Max angular momentum: 4

	-----------------------------------------------------------
	 ==================> DF-MP2 Energies <==================== 
	-----------------------------------------------------------
	 Reference Energy          =    -157.3528164836604333 [Eh]
	 Singles Energy            =      -0.0000000000000000 [Eh]
	 Same-Spin Energy          =      -0.1653647387125347 [Eh]
	 Opposite-Spin Energy      =      -0.6386381326758802 [Eh]
	 Correlation Energy        =      -0.8040028713884149 [Eh]
	 Total Energy              =    -158.1568193550488388 [Eh]
	-----------------------------------------------------------
	 ================> DF-SCS-MP2 Energies <================== 
	-----------------------------------------------------------
	 SCS Same-Spin Scale       =       0.3333333333333333 [-]
	 SCS Opposite-Spin Scale   =       1.2000000000000000 [-]
	 SCS Same-Spin Energy      =      -0.0551215795708449 [Eh]
	 SCS Opposite-Spin Energy  =      -0.7663657592110562 [Eh]
	 SCS Correlation Energy    =      -0.8214873387819011 [Eh]
	 SCS Total Energy          =    -158.1743038224423401 [Eh]
	-----------------------------------------------------------


  -Total Gradient:
     Atom            X                  Y                   Z
    ------   -----------------  -----------------  -----------------
       1        0.007897159356     0.006758715879    -0.006346611712
       2        0.008159264984    -0.009350912226     0.000617142130
       3        0.003283038719     0.004171300686     0.011237355730
       4       -0.025192894763    -0.007041566273    -0.008027739697
       5       -0.007767176113    -0.008222518101     0.006061224835
       6       -0.003184660016    -0.005634494007    -0.011477729065
       7        0.021850704879     0.031061465918     0.011163396514
       8        0.007964300672     0.008479188499    -0.006378054358
       9        0.003318529129     0.005621135668     0.011574261377
      10       -0.021659576949    -0.031341892217    -0.010633343244
      11       -0.008400357065     0.009988653838    -0.000647631511
      12       -0.003259264734    -0.004001912559    -0.010999625616
      13       -0.007622948271    -0.006572893492     0.006211813220
      14        0.024613880176     0.006085728386     0.007645541401


*** tstop() called on gpu-2-9.local at Wed Jun 14 15:01:26 2017
Module time:
	user time   =     472.04 seconds =       7.87 minutes
	system time =       3.20 seconds =       0.05 minutes
	total time  =        476 seconds =       7.93 minutes
Total time:
	user time   =     472.05 seconds =       7.87 minutes
	system time =       3.20 seconds =       0.05 minutes
	total time  =        476 seconds =       7.93 minutes

			-----------------------------------------
			 OPTKING 2.0: for geometry optimizations 
			  - R.A. King,  Bethel University        
			-----------------------------------------

	Internal coordinates to be generated automatically.
	Detected frag 1 with atoms:  1 2 3 4 5 6 7 8 9 10 11 12 13 14
	---Fragment 1 Bond Connectivity---
	 1 : 4
	 2 : 4
	 3 : 4
	 4 : 1 2 3 7
	 5 : 7
	 6 : 7
	 7 : 4 5 6 10
	 8 : 10
	 9 : 10
	 10 : 7 8 9 14
	 11 : 14
	 12 : 14
	 13 : 14
	 14 : 10 11 12 13

	Assuming in current code that numbering for constraints corresponds to unified fragment.
	Fixed dihedral atom list: 
	     7    10    14    13
	---Fragment 1 Geometry and Gradient---
	 H          -4.3705460943        0.1095385313        0.5948404886
	 H          -4.1040947096        3.1860126757       -0.5767897138
	 H          -3.5409563220        0.6084262304       -2.5610021533
	 C          -3.3538734348        1.3095146257       -0.6750554727
	 H           0.4766014365        2.5491749689       -1.2003993376
	 H          -0.3510986097        2.0521769959        1.9573330304
	 C          -0.5400712230        1.3491988745        0.0713863498
	 H          -0.4758205344       -2.5493061377        1.1995528511
	 H           0.3537692379       -2.0523081647       -1.9562897908
	 C           0.5408521251       -1.3493300433       -0.0703431102
	 H           4.1029858855       -3.1842541183        0.5759432273
	 H           3.5417372241       -0.6066676730        2.5601556668
	 H           4.3713269964       -0.1096697001       -0.5956869751
	 C           3.3527646108       -1.3096457945        0.6742089862
	             0.0078971594        0.0067587159       -0.0063466117
	             0.0081592650       -0.0093509122        0.0006171421
	             0.0032830387        0.0041713007        0.0112373557
	            -0.0251928948       -0.0070415663       -0.0080277397
	            -0.0077671761       -0.0082225181        0.0060612248
	            -0.0031846600       -0.0056344940       -0.0114777291
	             0.0218507049        0.0310614659        0.0111633965
	             0.0079643007        0.0084791885       -0.0063780544
	             0.0033185291        0.0056211357        0.0115742614
	            -0.0216595769       -0.0313418922       -0.0106333432
	            -0.0084003571        0.0099886538       -0.0006476315
	            -0.0032592647       -0.0040019126       -0.0109996256
	            -0.0076229483       -0.0065728935        0.0062118132
	             0.0246138802        0.0060857284        0.0076455414

	Previous optimization step data not found.  Starting new optimization.

	---Fragment 1 Intrafragment Coordinates---
	 - Coordinate -           - BOHR/RAD -       - ANG/DEG -
	 R(1,4)           =         2.021436	       1.069698
	 R(2,4)           =         2.023298	       1.070683
	 R(3,4)           =         2.020723	       1.069320
	 R(4,7)           =         2.911397	       1.540645
	 R(5,7)           =         2.022623	       1.070326
	 R(6,7)           =         2.021555	       1.069761
	 R(7,10)          =         2.910419	       1.540128
	 R(8,10)          =         2.021436	       1.069698
	 R(9,10)          =         2.021379	       1.069668
	 R(10,14)         =         2.909087	       1.539422
	 R(11,14)         =         2.021545	       1.069756
	 R(12,14)         =         2.021555	       1.069761
	 R(13,14)         =         2.022387	       1.070201
	 B(1,4,2)         =         1.910870	     109.484805
	 B(1,4,3)         =         1.911121	     109.499161
	 B(1,4,7)         =         1.910399	     109.457783
	 B(2,4,3)         =         1.910042	     109.437340
	 B(2,4,7)         =         1.910564	     109.467262
	 B(3,4,7)         =         1.910803	     109.480971
	 B(4,7,5)         =         1.909937	     109.431343
	 B(4,7,6)         =         1.911630	     109.528316
	 B(4,7,10)        =         1.911154	     109.501062
	 B(5,7,6)         =         1.910605	     109.469614
	 B(5,7,10)        =         1.910047	     109.437654
	 B(6,7,10)        =         1.910425	     109.459295
	 B(7,10,8)        =         1.910303	     109.452301
	 B(7,10,9)        =         1.910824	     109.482155
	 B(7,10,14)       =         1.911213	     109.504437
	 B(8,10,9)        =         1.910417	     109.458846
	 B(8,10,14)       =         1.910766	     109.478806
	 B(9,10,14)       =         1.910276	     109.450772
	 B(10,14,11)      =         1.910943	     109.488965
	 B(10,14,12)      =         1.911204	     109.503926
	 B(10,14,13)      =         1.911557	     109.524173
	 B(11,14,12)      =         1.910410	     109.458432
	 B(11,14,13)      =         1.910054	     109.438058
	 B(12,14,13)      =         1.909629	     109.413709
	 D(1,4,7,5)       =         3.140997	     179.965873
	 D(1,4,7,6)       =        -1.047644	     -60.025575
	 D(1,4,7,10)      =         1.047427	      60.013132
	 D(2,4,7,5)       =        -1.047689	     -60.028143
	 D(2,4,7,6)       =         1.046856	      59.980409
	 D(2,4,7,10)      =        -3.141259	    -179.980883
	 D(3,4,7,5)       =         1.046044	      59.933911
	 D(3,4,7,6)       =         3.140588	     179.942463
	 D(3,4,7,10)      =        -1.047526	     -60.018830
	 D(4,7,10,8)      =        -1.047368	     -60.009777
	 D(4,7,10,9)      =         1.046677	      59.970178
	 D(4,7,10,14)     =         3.141107	     179.972182
	 D(5,7,10,8)      =        -3.140871	    -179.958653
	 D(5,7,10,9)      =        -1.046826	     -59.978698
	 D(5,7,10,14)     =         1.047604	      60.023306
	 D(6,7,10,8)      =         1.048439	      60.071149
	 D(6,7,10,9)      =        -3.140701	    -179.948896
	 D(6,7,10,14)     =        -1.046271	     -59.946893
	 D(7,10,14,11)    =         3.141408	     179.989448
	 D(7,10,14,12)    =         1.046747	      59.974196
	 D(7,10,14,13)    =        -1.047335	     -60.007849
	 D(8,10,14,11)    =         1.046982	      59.987626
	 D(8,10,14,12)    =        -1.047680	     -60.027626
	 D(8,10,14,13)    =         3.141424	     179.990329
	 D(9,10,14,11)    =        -1.047012	     -59.989345
	 D(9,10,14,12)    =         3.141512	     179.995403
	 D(9,10,14,13)    =         1.047431	      60.013359

	Current energy   :      -158.1568193550

	Generating empirical Hessian (Schlegel '84) for each fragment.
	Adding user-defined constraint: Fragment 1; Coordinate 58:
		Value =    -1.047335; Fixed value    =    -1.047198
		Force =     0.000068; Force constant =     0.500000
	Removing off-diagonal coupling between coordinate 58 and others.
	Taking RFO optimization step.
	Going to follow RFO solution 1.
	Using RFO vector 1.

	Determining step-restricting scale parameter for RS-RFO.
	Maximum step size allowed    0.10000

	 Iter      |step|        alpha        rfo_root  
	------------------------------------------------
	    0     0.17945       1.00000           1
	    1     0.13852       8.50242           1
	    2     0.11371      20.98435           1
	    3     0.10254      31.20004           1
	    4     0.10011      34.01928           1
	    5     0.10000      34.15522           1
	------------------------------------------------
	Norm of target step-size    0.10000
	Projected energy change by RFO approximation:        -0.0042671750

	Back-transformation to cartesian coordinates...
	Could not converge backtransformation.
	Using first guess instead.

	--- Internal Coordinate Step in ANG or DEG, aJ/ANG or AJ/DEG ---
	 ---------------------------------------------------------------------------
	   Coordinate                Previous        Force       Change         New 
	   ----------                --------       ------       ------       ------
	    1 R(1,4)          =      1.069698     0.098626     0.012198     1.081895
	    2 R(2,4)          =      1.070683     0.096128     0.011907     1.082590
	    3 R(3,4)          =      1.069320     0.100834     0.012457     1.081777
	    4 R(4,7)          =      1.540645    -0.052544    -0.007721     1.532924
	    5 R(5,7)          =      1.070326     0.103755     0.012800     1.083126
	    6 R(6,7)          =      1.069761     0.106814     0.013159     1.082919
	    7 R(7,10)         =      1.540128    -0.075553    -0.011012     1.529115
	    8 R(8,10)         =      1.069698     0.107481     0.013239     1.082937
	    9 R(9,10)         =      1.069668     0.107604     0.013254     1.082921
	   10 R(10,14)        =      1.539422    -0.047734    -0.006990     1.532433
	   11 R(11,14)        =      1.069756     0.101737     0.012569     1.082324
	   12 R(12,14)        =      1.069761     0.098519     0.012184     1.081945
	   13 R(13,14)        =      1.070201     0.095897     0.011875     1.082076
	   14 B(1,4,2)        =    109.484805    -0.000250    -0.587929   108.896875
	   15 B(1,4,3)        =    109.499161    -0.000172    -0.464468   109.034693
	   16 B(1,4,7)        =    109.457783     0.000133     0.304412   109.762195
	   17 B(2,4,3)        =    109.437340    -0.000244    -0.569708   108.867632
	   18 B(2,4,7)        =    109.467262     0.000411     1.020146   110.487408
	   19 B(3,4,7)        =    109.480971     0.000123     0.281656   109.762627
	   20 B(4,7,5)        =    109.431343    -0.000116    -0.138419   109.292924
	   21 B(4,7,6)        =    109.528316    -0.000124    -0.166899   109.361418
	   22 B(4,7,10)       =    109.501062     0.000630     1.378921   110.879983
	   23 B(5,7,6)        =    109.469614     0.000009    -0.241285   109.228329
	   24 B(5,7,10)       =    109.437654    -0.000201    -0.422594   109.015061
	   25 B(6,7,10)       =    109.459295    -0.000199    -0.419951   109.039344
	   26 B(7,10,8)       =    109.452301    -0.000203    -0.445066   109.007235
	   27 B(7,10,9)       =    109.482155    -0.000202    -0.415939   109.066217
	   28 B(7,10,14)      =    109.504437     0.000633     1.383044   110.887481
	   29 B(8,10,9)       =    109.458846     0.000009    -0.240041   109.218805
	   30 B(8,10,14)      =    109.478806    -0.000121    -0.156576   109.322231
	   31 B(9,10,14)      =    109.450772    -0.000116    -0.135843   109.314929
	   32 B(10,14,11)     =    109.488965     0.000410     1.009859   110.498823
	   33 B(10,14,12)     =    109.503926     0.000126     0.297502   109.801428
	   34 B(10,14,13)     =    109.524173     0.000118     0.270886   109.795059
	   35 B(11,14,12)     =    109.458432    -0.000247    -0.578819   108.879613
	   36 B(11,14,13)     =    109.438058    -0.000247    -0.594402   108.843657
	   37 B(12,14,13)     =    109.413709    -0.000162    -0.422603   108.991107
	   38 D(1,4,7,5)      =    179.965873     0.000010     0.139016   180.104889
	   39 D(1,4,7,6)      =    -60.025575    -0.000022    -0.341173   -60.366748
	   40 D(1,4,7,10)     =     60.013132    -0.000006    -0.106872    59.906261
	   41 D(2,4,7,5)      =    -60.028143     0.000016     0.239511   -59.788631
	   42 D(2,4,7,6)      =     59.980409    -0.000016    -0.240678    59.739731
	   43 D(2,4,7,10)     =   -179.980883    -0.000000    -0.006376  -179.987260
	   44 D(3,4,7,5)      =     59.933911     0.000022     0.347940    60.281851
	   45 D(3,4,7,6)      =    179.942463    -0.000009    -0.132249   179.810214
	   46 D(3,4,7,10)     =    -60.018830     0.000006     0.102053   -59.916777
	   47 D(4,7,10,8)     =    -60.009777     0.000028     0.407349   -59.602428
	   48 D(4,7,10,9)     =     59.970178    -0.000027    -0.401281    59.568897
	   49 D(4,7,10,14)    =    179.972182     0.000001     0.025553   179.997735
	   50 D(5,7,10,8)     =   -179.958653    -0.000000    -0.007688  -179.966341
	   51 D(5,7,10,9)     =    -59.978698    -0.000055    -0.816319   -60.795016
	   52 D(5,7,10,14)    =     60.023306    -0.000027    -0.389484    59.633821
	   53 D(6,7,10,8)     =     60.071149     0.000053     0.790845    60.861994
	   54 D(6,7,10,9)     =   -179.948896    -0.000001    -0.017785  -179.966682
	   55 D(6,7,10,14)    =    -59.946893     0.000027     0.409049   -59.537844
	   56 D(7,10,14,11)   =    179.989448    -0.000001    -0.028425   179.961023
	   57 D(7,10,14,12)   =     59.974196    -0.000007    -0.130587    59.843609
	   58 D(7,10,14,13)   =    -60.007849     0.000004     0.037583   -59.970266
	   59 D(8,10,14,11)   =     59.987626    -0.000015    -0.239141    59.748485
	   60 D(8,10,14,12)   =    -60.027626    -0.000021    -0.341303   -60.368929
	   61 D(8,10,14,13)   =    179.990329    -0.000010    -0.173134   179.817196
	   62 D(9,10,14,11)   =    -59.989345     0.000015     0.231393   -59.757952
	   63 D(9,10,14,12)   =    179.995403     0.000009     0.129231   180.124634
	   64 D(9,10,14,13)   =     60.013359     0.000020     0.297400    60.310759
	 ---------------------------------------------------------------------------
	Successfully symmetrized geometry.
	 Forces used to impose fixed constraints are not included.
	  Forces zeroed: 58 

  ==> Convergence Check <==

  Measures of convergence in internal coordinates in au.
  Criteria marked as inactive (o), active & met (*), and active & unmet ( ).
  --------------------------------------------------------------------------------------------- ~
   Step     Total Energy     Delta E     MAX Force     RMS Force      MAX Disp      RMS Disp    ~
  --------------------------------------------------------------------------------------------- ~
    Convergence Criteria    1.00e-06 *    3.00e-04 *             o    1.20e-03 *             o  ~
  --------------------------------------------------------------------------------------------- ~
      1    -158.15681936   -1.58e+02      1.31e-02      5.62e-03 o    2.50e-02      1.25e-02 o  ~
  ---------------------------------------------------------------------------------------------

	Writing optimization data to binary file.
	Structure for next step:
	Cartesian Geometry (in Angstrom)
	    H    -2.3294979303   0.0585660538   0.3182986382
	    H    -2.1861292283   1.6987255035  -0.3065816543
	    H    -1.8866788415   0.3248729580  -1.3660829646
	    C    -1.7762866032   0.6979666491  -0.3566985616
	    H     0.2520081491   1.3484390581  -0.6449287273
	    H    -0.1907286932   1.0825640324   1.0437829552
	    C    -0.2940235129   0.7050343247   0.0340723136
	    H    -0.2521444661  -1.3480637213   0.6444944073
	    H     0.1917219262  -1.0824825066  -1.0436981684
	    C     0.2942619801  -0.7047463868  -0.0339855568
	    H     2.1857640442  -1.6984280282   0.3069378172
	    H     1.8874266368  -0.3236278458   1.3656101124
	    H     2.3301264373  -0.0594353297  -0.3189330836
	    C     1.7760727509  -0.6978706419   0.3565768835
			--------------------------
			 OPTKING Finished Execution 
			--------------------------

    Structure for next step:
    Molecular point group: c1
    Full point group: C1

    Geometry (in Angstrom), charge = 0, multiplicity = 1:

    H           -2.329535431931     0.058467112108     0.318324953288
    H           -2.186166729912     1.698626561794    -0.306555339191
    H           -1.886716343114     0.324774016336    -1.366056649487
    C           -1.776324104810     0.697867707430    -0.356672246436
    H            0.251970647458     1.348340116485    -0.644902412216
    H           -0.190766194859     1.082465090749     1.043809270330
    C           -0.294061014595     0.704935383013     0.034098628684
    H           -0.252181967799    -1.348162662957     0.644520722393
    H            0.191684424552    -1.082581448238    -1.043671853290
    C            0.294224478419    -0.704845328506    -0.033959241658
    H            2.185726542519    -1.698526969818     0.306964132351
    H            1.887389135116    -0.323726787486     1.365636427484
    H            2.330088935694    -0.059534271348    -0.318906768496
    C            1.776035249267    -0.697969583525     0.356603198613

gradient() will perform analytic gradient computation.

*** tstart() called on gpu-2-9.local
*** at Wed Jun 14 15:01:27 2017

    SCF Algorithm Type (re)set to DF.

*** tstart() called on gpu-2-9.local
*** at Wed Jun 14 15:01:27 2017

   => Loading Basis Set <=

    Name: AUG-CC-PVTZ
    Role: ORBITAL
    Keyword: BASIS
    atoms 1-3, 5-6, 8-9, 11-13 entry H          line    34 file /cbio/jclab/home/chayas/anaconda/envs/py35/share/psi4/basis/aug-cc-pvtz.gbs 
    atoms 4, 7, 10, 14         entry C          line   221 file /cbio/jclab/home/chayas/anaconda/envs/py35/share/psi4/basis/aug-cc-pvtz.gbs 


         ---------------------------------------------------------
                                   SCF
            by Justin Turney, Rob Parrish, and Andy Simmonett
                              RHF Reference
                        1 Threads,    953 MiB Core
         ---------------------------------------------------------

  ==> Geometry <==

    Molecular point group: c1
    Full point group: C1

    Geometry (in Angstrom), charge = 0, multiplicity = 1:

       Center              X                  Y                   Z               Mass       
    ------------   -----------------  -----------------  -----------------  -----------------
           H         -2.329535431931     0.058467112108     0.318324953288     1.007825032070
           H         -2.186166729912     1.698626561794    -0.306555339191     1.007825032070
           H         -1.886716343114     0.324774016336    -1.366056649487     1.007825032070
           C         -1.776324104810     0.697867707430    -0.356672246436    12.000000000000
           H          0.251970647458     1.348340116485    -0.644902412216     1.007825032070
           H         -0.190766194859     1.082465090749     1.043809270330     1.007825032070
           C         -0.294061014595     0.704935383013     0.034098628684    12.000000000000
           H         -0.252181967799    -1.348162662957     0.644520722393     1.007825032070
           H          0.191684424552    -1.082581448238    -1.043671853290     1.007825032070
           C          0.294224478419    -0.704845328506    -0.033959241658    12.000000000000
           H          2.185726542519    -1.698526969818     0.306964132351     1.007825032070
           H          1.887389135116    -0.323726787486     1.365636427484     1.007825032070
           H          2.330088935694    -0.059534271348    -0.318906768496     1.007825032070
           C          1.776035249267    -0.697969583525     0.356603198613    12.000000000000

  Running in c1 symmetry.

  Rotational constants: A =      0.77650  B =      0.12373  C =      0.11593 [cm^-1]
  Rotational constants: A =  23278.76116  B =   3709.23862  C =   3475.36316 [MHz]
  Nuclear repulsion =  131.477460542611112

  Charge       = 0
  Multiplicity = 1
  Electrons    = 34
  Nalpha       = 17
  Nbeta        = 17

  ==> Algorithm <==

  SCF Algorithm Type is DF.
  DIIS enabled.
  MOM disabled.
  Fractional occupation disabled.
  Guess Type is READ.
  Energy threshold   = 1.00e-10
  Density threshold  = 1.00e-10
  Integral threshold = 0.00e+00

  ==> Primary Basis <==

  Basis Set: AUG-CC-PVTZ
    Blend: AUG-CC-PVTZ
    Number of shells: 146
    Number of basis function: 414
    Number of Cartesian functions: 470
    Spherical Harmonics?: true
    Max angular momentum: 3

   => Loading Basis Set <=

    Name: (AUG-CC-PVTZ AUX)
    Role: JKFIT
    Keyword: DF_BASIS_SCF
    atoms 1-3, 5-6, 8-9, 11-13 entry H          line    69 file /cbio/jclab/home/chayas/anaconda/envs/py35/share/psi4/basis/aug-cc-pvtz-jkfit.gbs 
    atoms 4, 7, 10, 14         entry C          line   161 file /cbio/jclab/home/chayas/anaconda/envs/py35/share/psi4/basis/aug-cc-pvtz-jkfit.gbs 

  Reading orbitals from file 180, no projection.

  ==> Pre-Iterations <==

   -------------------------------------------------------
    Irrep   Nso     Nmo     Nalpha   Nbeta   Ndocc  Nsocc
   -------------------------------------------------------
     A        414     414       0       0       0       0
   -------------------------------------------------------
    Total     414     414      17      17      17       0
   -------------------------------------------------------

  ==> Integral Setup <==

  ==> DFJK: Density-Fitted J/K Matrices <==

    J tasked:                  Yes
    K tasked:                  Yes
    wK tasked:                  No
    OpenMP threads:              1
    Integrals threads:           1
    Memory (MB):               715
    Algorithm:                Core
    Integral Cache:           NONE
    Schwarz Cutoff:          1E-12
    Fitting Condition:       1E-12

   => Auxiliary Basis Set <=

  Basis Set: (AUG-CC-PVTZ AUX)
    Blend: AUG-CC-PVTZ-JKFIT
    Number of shells: 260
    Number of basis function: 876
    Number of Cartesian functions: 1074
    Spherical Harmonics?: true
    Max angular momentum: 4

  Minimum eigenvalue in the overlap matrix is 8.0016563613E-06.
  Using Symmetric Orthogonalization.

  SCF Guess: Orbitals guess was supplied from a previous computation.

  ==> Iterations <==

                           Total Energy        Delta E     RMS |[F,P]|

   @DF-RHF iter   0:  -157.27817584190115   -1.57278e+02   1.26930e-04 
   @DF-RHF iter   1:  -157.35510366936566   -7.69278e-02   5.22082e-05 
   @DF-RHF iter   2:  -157.35538237066578   -2.78701e-04   2.70166e-05 DIIS
   @DF-RHF iter   3:  -157.35544144208711   -5.90714e-05   2.89400e-06 DIIS
   @DF-RHF iter   4:  -157.35544290994352   -1.46786e-06   7.73690e-07 DIIS
   @DF-RHF iter   5:  -157.35544299821771   -8.82742e-08   2.56801e-07 DIIS
   @DF-RHF iter   6:  -157.35544300813723   -9.91952e-09   4.15764e-08 DIIS
   @DF-RHF iter   7:  -157.35544300852467   -3.87445e-10   5.92791e-09 DIIS
   @DF-RHF iter   8:  -157.35544300853388   -9.20863e-12   9.96919e-10 DIIS
   @DF-RHF iter   9:  -157.35544300853397   -8.52651e-14   2.19808e-10 DIIS
   @DF-RHF iter  10:  -157.35544300853428   -3.12639e-13   4.42061e-11 DIIS

  ==> Post-Iterations <==

    Orbital Energies (a.u.)
    -----------------------

    Doubly Occupied:                                                      

       1A    -11.210299     2A    -11.209685     3A    -11.203846  
       4A    -11.203810     5A     -1.071502     6A     -0.980122  
       7A     -0.859889     8A     -0.789048     9A     -0.645578  
      10A     -0.585075    11A     -0.572092    12A     -0.571814  
      13A     -0.513045    14A     -0.499627    15A     -0.470418  
      16A     -0.465509    17A     -0.449415  

    Virtual:                                                              

      18A      0.032272    19A      0.036863    20A      0.039719  
      21A      0.040944    22A      0.056425    23A      0.058479  
      24A      0.059550    25A      0.061386    26A      0.081828  
      27A      0.085842    28A      0.095895    29A      0.112254  
      30A      0.123191    31A      0.130763    32A      0.135347  
      33A      0.141675    34A      0.143917    35A      0.147026  
      36A      0.148136    37A      0.158882    38A      0.159732  
      39A      0.168431    40A      0.170406    41A      0.202368  
      42A      0.209859    43A      0.212443    44A      0.229226  
      45A      0.248822    46A      0.249805    47A      0.250942  
      48A      0.269371    49A      0.272331    50A      0.280562  
      51A      0.281458    52A      0.316248    53A      0.318969  
      54A      0.331381    55A      0.337956    56A      0.338819  
      57A      0.346239    58A      0.356828    59A      0.357265  
      60A      0.358341    61A      0.373315    62A      0.374076  
      63A      0.384167    64A      0.389167    65A      0.391066  
      66A      0.391438    67A      0.395186    68A      0.402156  
      69A      0.407262    70A      0.413818    71A      0.424511  
      72A      0.429916    73A      0.442684    74A      0.446494  
      75A      0.454377    76A      0.461058    77A      0.461829  
      78A      0.470157    79A      0.474695    80A      0.477318  
      81A      0.478000    82A      0.489638    83A      0.497696  
      84A      0.506068    85A      0.507919    86A      0.508576  
      87A      0.521824    88A      0.524154    89A      0.525909  
      90A      0.538008    91A      0.547766    92A      0.563793  
      93A      0.564449    94A      0.577096    95A      0.585704  
      96A      0.597785    97A      0.598102    98A      0.616258  
      99A      0.621489   100A      0.639986   101A      0.644127  
     102A      0.649549   103A      0.684177   104A      0.690414  
     105A      0.700639   106A      0.703808   107A      0.764677  
     108A      0.776644   109A      0.796878   110A      0.817343  
     111A      0.821951   112A      0.825807   113A      0.838119  
     114A      0.841043   115A      0.845533   116A      0.855227  
     117A      0.861446   118A      0.863952   119A      0.885601  
     120A      0.890387   121A      0.893299   122A      0.900588  
     123A      0.915720   124A      0.916270   125A      0.919999  
     126A      0.932241   127A      0.939067   128A      0.944435  
     129A      0.956622   130A      0.958549   131A      0.960665  
     132A      0.964282   133A      0.988098   134A      0.995740  
     135A      0.996853   136A      0.999957   137A      1.008135  
     138A      1.027632   139A      1.045999   140A      1.049279  
     141A      1.070531   142A      1.079807   143A      1.095659  
     144A      1.101109   145A      1.107817   146A      1.123911  
     147A      1.129857   148A      1.133051   149A      1.136454  
     150A      1.157776   151A      1.160851   152A      1.167808  
     153A      1.175874   154A      1.190025   155A      1.207112  
     156A      1.207734   157A      1.226146   158A      1.246127  
     159A      1.251510   160A      1.257629   161A      1.259335  
     162A      1.263262   163A      1.275963   164A      1.279067  
     165A      1.281117   166A      1.294625   167A      1.310330  
     168A      1.325354   169A      1.343838   170A      1.353978  
     171A      1.358124   172A      1.364784   173A      1.388653  
     174A      1.422650   175A      1.430002   176A      1.433241  
     177A      1.461447   178A      1.483954   179A      1.495903  
     180A      1.503560   181A      1.530077   182A      1.536142  
     183A      1.543191   184A      1.555570   185A      1.575223  
     186A      1.581701   187A      1.599806   188A      1.607691  
     189A      1.616575   190A      1.640217   191A      1.642868  
     192A      1.647253   193A      1.681462   194A      1.686347  
     195A      1.698786   196A      1.700476   197A      1.703010  
     198A      1.708944   199A      1.734080   200A      1.738223  
     201A      1.753688   202A      1.757462   203A      1.760577  
     204A      1.773365   205A      1.773636   206A      1.786476  
     207A      1.788298   208A      1.794018   209A      1.829491  
     210A      1.851074   211A      1.861239   212A      1.874012  
     213A      1.879200   214A      1.891143   215A      1.915911  
     216A      1.921521   217A      1.965489   218A      1.968832  
     219A      1.970470   220A      1.982304   221A      1.983758  
     222A      1.986243   223A      2.022043   224A      2.047568  
     225A      2.058366   226A      2.073449   227A      2.094694  
     228A      2.102589   229A      2.148325   230A      2.152513  
     231A      2.167607   232A      2.168603   233A      2.182660  
     234A      2.210101   235A      2.238994   236A      2.249295  
     237A      2.258286   238A      2.290412   239A      2.302088  
     240A      2.317097   241A      2.323584   242A      2.324325  
     243A      2.330523   244A      2.338011   245A      2.378271  
     246A      2.393570   247A      2.431830   248A      2.456627  
     249A      2.471988   250A      2.478029   251A      2.501387  
     252A      2.531998   253A      2.604247   254A      2.610333  
     255A      2.657554   256A      2.686795   257A      2.695375  
     258A      2.897108   259A      2.901350   260A      3.026371  
     261A      3.236079   262A      3.252417   263A      3.260704  
     264A      3.387185   265A      3.421025   266A      3.429260  
     267A      3.460793   268A      3.466255   269A      3.479628  
     270A      3.480431   271A      3.515726   272A      3.530099  
     273A      3.573609   274A      3.580506   275A      3.590708  
     276A      3.590990   277A      3.630361   278A      3.666376  
     279A      3.683974   280A      3.684095   281A      3.720529  
     282A      3.720766   283A      3.725155   284A      3.734004  
     285A      3.754973   286A      3.760452   287A      3.787712  
     288A      3.796621   289A      3.812492   290A      3.813438  
     291A      3.844207   292A      3.866095   293A      3.876825  
     294A      3.883535   295A      3.904025   296A      3.909234  
     297A      3.926328   298A      3.950508   299A      3.951052  
     300A      3.993228   301A      3.998978   302A      3.999572  
     303A      4.017611   304A      4.018196   305A      4.043108  
     306A      4.045568   307A      4.049449   308A      4.061596  
     309A      4.147404   310A      4.169420   311A      4.206068  
     312A      4.211636   313A      4.214655   314A      4.229578  
     315A      4.245399   316A      4.265724   317A      4.269842  
     318A      4.284115   319A      4.293667   320A      4.305262  
     321A      4.347609   322A      4.352041   323A      4.357558  
     324A      4.397129   325A      4.410166   326A      4.420497  
     327A      4.534698   328A      4.535306   329A      4.563922  
     330A      4.581250   331A      4.624250   332A      4.646653  
     333A      4.674542   334A      4.690496   335A      4.724811  
     336A      4.726228   337A      4.731149   338A      4.737953  
     339A      4.751565   340A      4.779711   341A      4.796585  
     342A      4.839022   343A      4.854617   344A      4.868132  
     345A      4.868877   346A      4.886632   347A      4.901294  
     348A      4.937804   349A      4.953015   350A      4.986417  
     351A      5.034400   352A      5.042506   353A      5.048938  
     354A      5.075390   355A      5.114529   356A      5.162590  
     357A      5.187297   358A      5.212165   359A      5.213813  
     360A      5.220117   361A      5.236112   362A      5.242703  
     363A      5.245889   364A      5.266459   365A      5.270007  
     366A      5.379842   367A      5.386049   368A      5.397035  
     369A      5.404993   370A      5.406223   371A      5.441506  
     372A      5.445380   373A      5.449129   374A      5.484203  
     375A      5.534030   376A      5.570114   377A      5.590562  
     378A      5.606324   379A      5.658242   380A      5.686854  
     381A      5.698512   382A      5.723397   383A      5.728376  
     384A      5.760400   385A      5.819425   386A      5.840523  
     387A      5.859037   388A      5.895373   389A      5.910797  
     390A      6.005693   391A      6.035656   392A      6.105354  
     393A      6.128591   394A      6.146513   395A      6.220985  
     396A      6.226137   397A      6.246536   398A      6.247611  
     399A      6.271301   400A      6.332213   401A      6.381621  
     402A      6.390956   403A      6.540064   404A      6.549567  
     405A      6.741612   406A      6.777786   407A      6.819481  
     408A      6.833644   409A      6.861227   410A      6.987467  
     411A     17.899496   412A     18.132705   413A     18.238496  
     414A     18.850781  

    Final Occupation by Irrep:
              A 
    DOCC [    17 ]

  Energy converged.

  @DF-RHF Final Energy:  -157.35544300853428

   => Energetics <=

    Nuclear Repulsion Energy =            131.4774605426111123
    One-Electron Energy =                -471.0642569325650584
    Two-Electron Energy =                 182.2313533814196944
    DFT Exchange-Correlation Energy =       0.0000000000000000
    Empirical Dispersion Energy =           0.0000000000000000
    PCM Polarization Energy =               0.0000000000000000
    EFP Energy =                            0.0000000000000000
    Total Energy =                       -157.3554430085342801



Properties will be evaluated at   0.000000,   0.000000,   0.000000 Bohr

Properties computed using the SCF density matrix

  Nuclear Dipole Moment: (a.u.)
     X:     0.0014      Y:     0.0001      Z:    -0.0008

  Electronic Dipole Moment: (a.u.)
     X:    -0.0013      Y:    -0.0003      Z:     0.0007

  Dipole Moment: (a.u.)
     X:     0.0001      Y:    -0.0002      Z:    -0.0001     Total:     0.0002

  Dipole Moment: (Debye)
     X:     0.0002      Y:    -0.0005      Z:    -0.0003     Total:     0.0006


*** tstop() called on gpu-2-9.local at Wed Jun 14 15:02:52 2017
Module time:
	user time   =      84.83 seconds =       1.41 minutes
	system time =       0.40 seconds =       0.01 minutes
	total time  =         85 seconds =       1.42 minutes
Total time:
	user time   =     556.96 seconds =       9.28 minutes
	system time =       3.70 seconds =       0.06 minutes
	total time  =        562 seconds =       9.37 minutes

  //>>>>>>>>>>>>>>>>>>>>>>>>>>>>>>>>>>>//
  //               DFMP2               //
  //<<<<<<<<<<<<<<<<<<<<<<<<<<<<<<<<<<<//

   => Loading Basis Set <=

    Name: (AUG-CC-PVTZ AUX)
    Role: RIFIT
    Keyword: DF_BASIS_MP2
    atoms 1-3, 5-6, 8-9, 11-13 entry H          line    29 file /cbio/jclab/home/chayas/anaconda/envs/py35/share/psi4/basis/aug-cc-pvtz-ri.gbs 
    atoms 4, 7, 10, 14         entry C          line   147 file /cbio/jclab/home/chayas/anaconda/envs/py35/share/psi4/basis/aug-cc-pvtz-ri.gbs 

	 --------------------------------------------------------
	                          DF-MP2                         
	      2nd-Order Density-Fitted Moller-Plesset Theory     
	              RMP2 Wavefunction,   1 Threads             
	                                                         
	        Rob Parrish, Justin Turney, Andy Simmonett,      
	           Ed Hohenstein, and C. David Sherrill          
	 --------------------------------------------------------

   => Auxiliary Basis Set <=

  Basis Set: (AUG-CC-PVTZ AUX)
    Blend: AUG-CC-PVTZ-RI
    Number of shells: 252
    Number of basis function: 884
    Number of Cartesian functions: 1094
    Spherical Harmonics?: true
    Max angular momentum: 4

	 --------------------------------------------------------
	                 NBF =   414, NAUX =   884
	 --------------------------------------------------------
	   CLASS    FOCC     OCC    AOCC    AVIR     VIR    FVIR
	   PAIRS       0      17      17     397     397       0
	 --------------------------------------------------------


         ------------------------------------------------------------
                                     CPHF                           
                                  Rob Parrish                       
         ------------------------------------------------------------

  ==> Geometry <==

    Molecular point group: c1
    Full point group: C1

    Geometry (in Angstrom), charge = 0, multiplicity = 1:

       Center              X                  Y                   Z               Mass       
    ------------   -----------------  -----------------  -----------------  -----------------
           H         -2.329535431931     0.058467112108     0.318324953288     1.007825032070
           H         -2.186166729912     1.698626561794    -0.306555339191     1.007825032070
           H         -1.886716343114     0.324774016336    -1.366056649487     1.007825032070
           C         -1.776324104810     0.697867707430    -0.356672246436    12.000000000000
           H          0.251970647458     1.348340116485    -0.644902412216     1.007825032070
           H         -0.190766194859     1.082465090749     1.043809270330     1.007825032070
           C         -0.294061014595     0.704935383013     0.034098628684    12.000000000000
           H         -0.252181967799    -1.348162662957     0.644520722393     1.007825032070
           H          0.191684424552    -1.082581448238    -1.043671853290     1.007825032070
           C          0.294224478419    -0.704845328506    -0.033959241658    12.000000000000
           H          2.185726542519    -1.698526969818     0.306964132351     1.007825032070
           H          1.887389135116    -0.323726787486     1.365636427484     1.007825032070
           H          2.330088935694    -0.059534271348    -0.318906768496     1.007825032070
           C          1.776035249267    -0.697969583525     0.356603198613    12.000000000000

  Nuclear repulsion =  131.477460542611112
  Reference energy  = -157.355443008534280

  ==> Basis Set <==

  Basis Set: AUG-CC-PVTZ
    Blend: AUG-CC-PVTZ
    Number of shells: 146
    Number of basis function: 414
    Number of Cartesian functions: 470
    Spherical Harmonics?: true
    Max angular momentum: 3

  ==> CGRSolver (by Rob Parrish) <==

   Number of roots    =         1
   Preconditioning    =    JACOBI
   Convergence cutoff =     1E-06
   Maximum iterations =       100

  ==> CPHFRHamiltonian (by Rob Parrish) <== 

  ==> DFJK: Density-Fitted J/K Matrices <==

    J tasked:                  Yes
    K tasked:                  Yes
    wK tasked:                  No
    OpenMP threads:              1
    Integrals threads:           1
    Memory (MB):               715
    Algorithm:                Core
    Integral Cache:           NONE
    Schwarz Cutoff:          1E-12
    Fitting Condition:       1E-12

   => Auxiliary Basis Set <=

  Basis Set: (AUG-CC-PVTZ AUX)
    Blend: AUG-CC-PVTZ-JKFIT
    Number of shells: 260
    Number of basis function: 876
    Number of Cartesian functions: 1074
    Spherical Harmonics?: true
    Max angular momentum: 4

  ==> CPHF Iterations <==

  => Iterations <=

             Iter  Converged  Remaining    Residual
  CGR           1          0          1   8.307E-02
  CGR           2          0          1   1.321E-02
  CGR           3          0          1   3.486E-03
  CGR           4          0          1   8.131E-04
  CGR           5          0          1   1.195E-04
  CGR           6          0          1   2.154E-05
  CGR           7          0          1   3.672E-06
  CGR           8          1          0   8.129E-07

    CGRSolver converged.

  ==> DFCorrGrad: Density-Fitted Correlated Gradients <==

    OpenMP threads:              1
    Integrals threads:           1
    Memory (MB):               715
    Schwarz Cutoff:          0E+00
    Fitting Condition:       1E-12

   => Auxiliary Basis Set <=

  Basis Set: (AUG-CC-PVTZ AUX)
    Blend: AUG-CC-PVTZ-JKFIT
    Number of shells: 260
    Number of basis function: 876
    Number of Cartesian functions: 1074
    Spherical Harmonics?: true
    Max angular momentum: 4

	-----------------------------------------------------------
	 ==================> DF-MP2 Energies <==================== 
	-----------------------------------------------------------
	 Reference Energy          =    -157.3554430085342801 [Eh]
	 Singles Energy            =      -0.0000000000000000 [Eh]
	 Same-Spin Energy          =      -0.1653407777378195 [Eh]
	 Opposite-Spin Energy      =      -0.6390758282491305 [Eh]
	 Correlation Energy        =      -0.8044166059869500 [Eh]
	 Total Energy              =    -158.1598596145212241 [Eh]
	-----------------------------------------------------------
	 ================> DF-SCS-MP2 Energies <================== 
	-----------------------------------------------------------
	 SCS Same-Spin Scale       =       0.3333333333333333 [-]
	 SCS Opposite-Spin Scale   =       1.2000000000000000 [-]
	 SCS Same-Spin Energy      =      -0.0551135925792732 [Eh]
	 SCS Opposite-Spin Energy  =      -0.7668909938989565 [Eh]
	 SCS Correlation Energy    =      -0.8220045864782297 [Eh]
	 SCS Total Energy          =    -158.1774475950125236 [Eh]
	-----------------------------------------------------------


  -Total Gradient:
     Atom            X                  Y                   Z
    ------   -----------------  -----------------  -----------------
       1        0.003400024755     0.002098905940    -0.001254605890
       2        0.003277228581    -0.002145531883     0.000491547058
       3        0.002183514757     0.001443264688     0.003342426432
       4       -0.013446920939    -0.003734366970    -0.004223748214
       5       -0.003325096567    -0.003900441389     0.000291518973
       6       -0.002412017545    -0.003389061672    -0.003079841256
       7        0.012461413355     0.015628340945     0.006034933740
       8        0.003356013693     0.003977771510    -0.000394961896
       9        0.002485599645     0.003356791984     0.003097184303
      10       -0.012371688381    -0.015693419543    -0.005833253468
      11       -0.003316015089     0.002338608893    -0.000536065912
      12       -0.002135443643    -0.001367021635    -0.003265172263
      13       -0.003273785637    -0.002070180337     0.001225878986
      14        0.013117173015     0.003456339471     0.004104159406


*** tstop() called on gpu-2-9.local at Wed Jun 14 15:09:13 2017
Module time:
	user time   =     463.48 seconds =       7.72 minutes
	system time =       2.99 seconds =       0.05 minutes
	total time  =        466 seconds =       7.77 minutes
Total time:
	user time   =     935.61 seconds =      15.59 minutes
	system time =       6.29 seconds =       0.10 minutes
	total time  =        943 seconds =      15.72 minutes

			-----------------------------------------
			 OPTKING 2.0: for geometry optimizations 
			  - R.A. King,  Bethel University        
			-----------------------------------------

	Previous internal coordinate definitions found.
	---Fragment 1 Geometry and Gradient---
	 H          -4.4021839832        0.1104868297        0.6015469830
	 H          -4.1312564004        3.2099390038       -0.5793056356
	 H          -3.5653771789        0.6137339460       -2.5814729495
	 C          -3.3567660813        1.3187788440       -0.6740128650
	 H           0.4761555172        2.5479935541       -1.2186889415
	 H          -0.3604958637        2.0455625699        1.9725136559
	 C          -0.5556947839        1.3321348153        0.0644370697
	 H          -0.4765548548       -2.5476582156        1.2179676523
	 H           0.3622310663       -2.0457824537       -1.9722539753
	 C           0.5560036858       -1.3319646369       -0.0641736664
	 H           4.1304245667       -3.2097508023        0.5800781428
	 H           3.5666485716       -0.6117549702        2.5806788450
	 H           4.4032299537       -0.1125034684       -0.6026464544
	 C           3.3562202235       -1.3189713619        0.6738823835
	             0.0034000248        0.0020989059       -0.0012546059
	             0.0032772286       -0.0021455319        0.0004915471
	             0.0021835148        0.0014432647        0.0033424264
	            -0.0134469209       -0.0037343670       -0.0042237482
	            -0.0033250966       -0.0039004414        0.0002915190
	            -0.0024120175       -0.0033890617       -0.0030798413
	             0.0124614134        0.0156283409        0.0060349337
	             0.0033560137        0.0039777715       -0.0003949619
	             0.0024855996        0.0033567920        0.0030971843
	            -0.0123716884       -0.0156934195       -0.0058332535
	            -0.0033160151        0.0023386089       -0.0005360659
	            -0.0021354436       -0.0013670216       -0.0032651723
	            -0.0032737856       -0.0020701803        0.0012258790
	             0.0131171730        0.0034563395        0.0041041594

	---Fragment 1 Intrafragment Coordinates---
	 - Coordinate -           - BOHR/RAD -       - ANG/DEG -
	 R(1,4)           =         2.044486	       1.081895
	 R(2,4)           =         2.045798	       1.082590
	 R(3,4)           =         2.044263	       1.081777
	 R(4,7)           =         2.896806	       1.532924
	 R(5,7)           =         2.046812	       1.083126
	 R(6,7)           =         2.046421	       1.082919
	 R(7,10)          =         2.889609	       1.529115
	 R(8,10)          =         2.046454	       1.082937
	 R(9,10)          =         2.046425	       1.082921
	 R(10,14)         =         2.895878	       1.532433
	 R(11,14)         =         2.045297	       1.082324
	 R(12,14)         =         2.044580	       1.081945
	 R(13,14)         =         2.044828	       1.082076
	 B(1,4,2)         =         1.900609	     108.896875
	 B(1,4,3)         =         1.903014	     109.034693
	 B(1,4,7)         =         1.915712	     109.762195
	 B(2,4,3)         =         1.900099	     108.867632
	 B(2,4,7)         =         1.928369	     110.487408
	 B(3,4,7)         =         1.915719	     109.762627
	 B(4,7,5)         =         1.907521	     109.292924
	 B(4,7,6)         =         1.908717	     109.361418
	 B(4,7,10)        =         1.935221	     110.879983
	 B(5,7,6)         =         1.906394	     109.228329
	 B(5,7,10)        =         1.902672	     109.015061
	 B(6,7,10)        =         1.903096	     109.039344
	 B(7,10,8)        =         1.902535	     109.007235
	 B(7,10,9)        =         1.903565	     109.066217
	 B(7,10,14)       =         1.935352	     110.887481
	 B(8,10,9)        =         1.906228	     109.218805
	 B(8,10,14)       =         1.908033	     109.322231
	 B(9,10,14)       =         1.907905	     109.314929
	 B(10,14,11)      =         1.928568	     110.498823
	 B(10,14,12)      =         1.916396	     109.801428
	 B(10,14,13)      =         1.916285	     109.795059
	 B(11,14,12)      =         1.900308	     108.879613
	 B(11,14,13)      =         1.899680	     108.843657
	 B(12,14,13)      =         1.902254	     108.991107
	 D(1,4,7,5)       =        -3.139762	    -179.895111
	 D(1,4,7,6)       =        -1.053599	     -60.366748
	 D(1,4,7,10)      =         1.045561	      59.906261
	 D(2,4,7,5)       =        -1.043508	     -59.788631
	 D(2,4,7,6)       =         1.042655	      59.739731
	 D(2,4,7,10)      =        -3.141370	    -179.987260
	 D(3,4,7,5)       =         1.052117	      60.281851
	 D(3,4,7,6)       =         3.138280	     179.810214
	 D(3,4,7,10)      =        -1.045745	     -59.916777
	 D(4,7,10,8)      =        -1.040259	     -59.602428
	 D(4,7,10,9)      =         1.039673	      59.568897
	 D(4,7,10,14)     =         3.141553	     179.997735
	 D(5,7,10,8)      =        -3.141005	    -179.966341
	 D(5,7,10,9)      =        -1.061073	     -60.795016
	 D(5,7,10,14)     =         1.040807	      59.633821
	 D(6,7,10,8)      =         1.062242	      60.861994
	 D(6,7,10,9)      =        -3.141011	    -179.966682
	 D(6,7,10,14)     =        -1.039131	     -59.537844
	 D(7,10,14,11)    =         3.140912	     179.961023
	 D(7,10,14,12)    =         1.044468	      59.843609
	 D(7,10,14,13)    =        -1.046679	     -59.970266
	 D(8,10,14,11)    =         1.042808	      59.748485
	 D(8,10,14,12)    =        -1.053637	     -60.368929
	 D(8,10,14,13)    =         3.138402	     179.817196
	 D(9,10,14,11)    =        -1.042973	     -59.757952
	 D(9,10,14,12)    =        -3.139417	    -179.875366
	 D(9,10,14,13)    =         1.052621	      60.310759

	Current energy   :      -158.1598596145

	Energy change for the previous step:
		Projected    :        -0.0042671750
		Actual       :        -0.0030402595

	Performing BFGS update.
	Previous computed or guess Hessian on step 1.
	Steps to be used in Hessian update: 1
	Adding user-defined constraint: Fragment 1; Coordinate 58:
		Value =    -1.046679; Fixed value    =    -1.047200
		Force =    -0.000274; Force constant =     0.525000
	Removing off-diagonal coupling between coordinate 58 and others.
	Taking RFO optimization step.
	Going to follow RFO solution 1.
	Using RFO vector 1.

	Determining step-restricting scale parameter for RS-RFO.
	Maximum step size allowed    0.10000

	 Iter      |step|        alpha        rfo_root  
	------------------------------------------------
	    0     0.14571       1.00000           1
	    1     0.11638      11.02774           1
	    2     0.10332      19.47062           1
	    3     0.10019      22.13838           1
	    4     0.10000      22.30554           1
	------------------------------------------------
	Norm of target step-size    0.10000
	Projected energy change by RFO approximation:        -0.0014503583

	Back-transformation to cartesian coordinates...
	Successfully converged to displaced geometry.

	--- Internal Coordinate Step in ANG or DEG, aJ/ANG or AJ/DEG ---
	 ---------------------------------------------------------------------------
	   Coordinate                Previous        Force       Change         New 
	   ----------                --------       ------       ------       ------
	    1 R(1,4)          =      1.081895     0.030992     0.005850     1.087746
	    2 R(2,4)          =      1.082590     0.026374     0.004760     1.087350
	    3 R(3,4)          =      1.081777     0.031631     0.005962     1.087740
	    4 R(4,7)          =      1.532924    -0.040078    -0.010955     1.521968
	    5 R(5,7)          =      1.083126     0.034405     0.006578     1.089704
	    6 R(6,7)          =      1.082919     0.035288     0.006731     1.089650
	    7 R(7,10)         =      1.529115    -0.039393    -0.009962     1.519153
	    8 R(8,10)         =      1.082937     0.035457     0.006760     1.089697
	    9 R(9,10)         =      1.082921     0.035378     0.006738     1.089659
	   10 R(10,14)        =      1.532433    -0.038286    -0.010508     1.521924
	   11 R(11,14)        =      1.082324     0.027950     0.005036     1.087360
	   12 R(12,14)        =      1.081945     0.030794     0.005803     1.087749
	   13 R(13,14)        =      1.082076     0.030178     0.005705     1.087782
	   14 B(1,4,2)        =    108.896875    -0.000155    -0.686690   108.210185
	   15 B(1,4,3)        =    109.034693    -0.000152    -0.830404   108.204290
	   16 B(1,4,7)        =    109.762195     0.000125     0.620147   110.382342
	   17 B(2,4,3)        =    108.867632    -0.000152    -0.668145   108.199488
	   18 B(2,4,7)        =    110.487408     0.000203     0.886539   111.373947
	   19 B(3,4,7)        =    109.762627     0.000122     0.608575   110.371201
	   20 B(4,7,5)        =    109.292924    -0.000024     0.155650   109.448574
	   21 B(4,7,6)        =    109.361418    -0.000029     0.117871   109.479288
	   22 B(4,7,10)       =    110.879983     0.000266     1.141614   112.021597
	   23 B(5,7,6)        =    109.228329    -0.000078    -1.207101   108.021228
	   24 B(5,7,10)       =    109.015061    -0.000069    -0.126933   108.888128
	   25 B(6,7,10)       =    109.039344    -0.000070    -0.144699   108.894645
	   26 B(7,10,8)       =    109.007235    -0.000073    -0.150683   108.856552
	   27 B(7,10,9)       =    109.066217    -0.000069    -0.134073   108.932144
	   28 B(7,10,14)      =    110.887481     0.000266     1.139415   112.026895
	   29 B(8,10,9)       =    109.218805    -0.000078    -1.202914   108.015890
	   30 B(8,10,14)      =    109.322231    -0.000027     0.127826   109.450057
	   31 B(9,10,14)      =    109.314929    -0.000024     0.156640   109.471569
	   32 B(10,14,11)     =    110.498823     0.000200     0.862536   111.361359
	   33 B(10,14,12)     =    109.801428     0.000121     0.603533   110.404961
	   34 B(10,14,13)     =    109.795059     0.000117     0.589539   110.384598
	   35 B(11,14,12)     =    108.879613    -0.000152    -0.672334   108.207279
	   36 B(11,14,13)     =    108.843657    -0.000155    -0.687123   108.156534
	   37 B(12,14,13)     =    108.991107    -0.000140    -0.764934   108.226173
	   38 D(1,4,7,5)      =   -179.895111     0.000011     0.536438  -179.358674
	   39 D(1,4,7,6)      =    -60.366748    -0.000018    -0.768699   -61.135447
	   40 D(1,4,7,10)     =     59.906261    -0.000004    -0.138726    59.767535
	   41 D(2,4,7,5)      =    -59.788631     0.000015     0.655932   -59.132699
	   42 D(2,4,7,6)      =     59.739731    -0.000015    -0.649204    59.090527
	   43 D(2,4,7,10)     =   -179.987260    -0.000000    -0.019232  -180.006491
	   44 D(3,4,7,5)      =     60.281851     0.000019     0.790497    61.072349
	   45 D(3,4,7,6)      =    179.810214    -0.000011    -0.514639   179.295575
	   46 D(3,4,7,10)     =    -59.916777     0.000004     0.115334   -59.801443
	   47 D(4,7,10,8)     =    -59.602428     0.000021     0.815073   -58.787354
[...]

  => Iterations <=

             Iter  Converged  Remaining    Residual
  CGR           1          0          1   8.473E-02
  CGR           2          0          1   1.340E-02
  CGR           3          0          1   3.542E-03
  CGR           4          0          1   8.146E-04
  CGR           5          0          1   1.191E-04
  CGR           6          0          1   2.184E-05
  CGR           7          0          1   3.750E-06
  CGR           8          1          0   8.458E-07

    CGRSolver converged.

  ==> DFCorrGrad: Density-Fitted Correlated Gradients <==

    OpenMP threads:              1
    Integrals threads:           1
    Memory (MB):               715
    Schwarz Cutoff:          0E+00
    Fitting Condition:       1E-12

   => Auxiliary Basis Set <=

  Basis Set: (AUG-CC-PVTZ AUX)
    Blend: AUG-CC-PVTZ-JKFIT
    Number of shells: 260
    Number of basis function: 876
    Number of Cartesian functions: 1074
    Spherical Harmonics?: true
    Max angular momentum: 4

	-----------------------------------------------------------
	 ==================> DF-MP2 Energies <==================== 
	-----------------------------------------------------------
	 Reference Energy          =    -157.3564088758550099 [Eh]
	 Singles Energy            =      -0.0000000000000000 [Eh]
	 Same-Spin Energy          =      -0.1654584183725351 [Eh]
	 Opposite-Spin Energy      =      -0.6391449267264523 [Eh]
	 Correlation Energy        =      -0.8046033450989875 [Eh]
	 Total Energy              =    -158.1610122209540066 [Eh]
	-----------------------------------------------------------
	 ================> DF-SCS-MP2 Energies <================== 
	-----------------------------------------------------------
	 SCS Same-Spin Scale       =       0.3333333333333333 [-]
	 SCS Opposite-Spin Scale   =       1.2000000000000000 [-]
	 SCS Same-Spin Energy      =      -0.0551528061241784 [Eh]
	 SCS Opposite-Spin Energy  =      -0.7669739120717427 [Eh]
	 SCS Correlation Energy    =      -0.8221267181959211 [Eh]
	 SCS Total Energy          =    -158.1785355940509419 [Eh]
	-----------------------------------------------------------


  -Total Gradient:
     Atom            X                  Y                   Z
    ------   -----------------  -----------------  -----------------
       1       -0.000034713723    -0.000025708564     0.000025315057
       2       -0.000013051192     0.000040870443     0.000002484310
       3       -0.000015935145    -0.000015662593    -0.000047354668
       4        0.000115828226    -0.000037363151     0.000026916075
       5        0.000007384049    -0.000006614825    -0.000024007043
       6       -0.000003604840    -0.000012353486     0.000021878162
       7       -0.000008372066     0.000018769476     0.000048665825
       8       -0.000012228075     0.000009634549     0.000027625522
       9        0.000006215279     0.000007322018    -0.000020100600
      10        0.000013391982    -0.000027435960    -0.000079928576
      11        0.000016366582    -0.000045979478    -0.000009623409
      12        0.000014118689     0.000007875893     0.000044386154
      13        0.000042686639    -0.000022915449    -0.000062323422
      14       -0.000128086405     0.000109561124     0.000046066614


*** tstop() called on gpu-2-9.local at Wed Jun 14 15:32:20 2017
Module time:
	user time   =     451.33 seconds =       7.52 minutes
	system time =       3.00 seconds =       0.05 minutes
	total time  =        454 seconds =       7.57 minutes
Total time:
	user time   =    2312.51 seconds =      38.54 minutes
	system time =      15.70 seconds =       0.26 minutes
	total time  =       2330 seconds =      38.83 minutes

			-----------------------------------------
			 OPTKING 2.0: for geometry optimizations 
			  - R.A. King,  Bethel University        
			-----------------------------------------

	Previous internal coordinate definitions found.
	---Fragment 1 Geometry and Gradient---
	 H          -4.4391201164        0.0985959765        0.5849856546
	 H          -4.1615554233        3.1984065789       -0.5881461636
	 H          -3.6031987482        0.6021694639       -2.5906151006
	 C          -3.3547268557        1.3102427659       -0.6751762169
	 H           0.4688292543        2.5641329009       -1.1981454737
	 H          -0.3624802456        2.0635776330        1.9600514736
	 C          -0.5826895979        1.3078890957        0.0541538586
	 H          -0.4684333565       -2.5631491680        1.2004329251
	 H           0.3611062650       -2.0649595157       -1.9586177673
	 C           0.5824833922       -1.3079134700       -0.0533997037
	 H           4.1589353839       -3.1999313370        0.5964337713
	 H           3.6055856216       -0.5927933697        2.5861339934
	 H           4.4404397537       -0.1071939844       -0.5930272607
	 C           3.3549239583       -1.3101222433        0.6744652261
	            -0.0000347137       -0.0000257086        0.0000253151
	            -0.0000130512        0.0000408704        0.0000024843
	            -0.0000159351       -0.0000156626       -0.0000473547
	             0.0001158282       -0.0000373632        0.0000269161
	             0.0000073840       -0.0000066148       -0.0000240070
	            -0.0000036048       -0.0000123535        0.0000218782
	            -0.0000083721        0.0000187695        0.0000486658
	            -0.0000122281        0.0000096345        0.0000276255
	             0.0000062153        0.0000073220       -0.0000201006
	             0.0000133920       -0.0000274360       -0.0000799286
	             0.0000163666       -0.0000459795       -0.0000096234
	             0.0000141187        0.0000078759        0.0000443862
	             0.0000426866       -0.0000229154       -0.0000623234
	            -0.0001280864        0.0001095611        0.0000460666

	---Fragment 1 Intrafragment Coordinates---
	 - Coordinate -           - BOHR/RAD -       - ANG/DEG -
	 R(1,4)           =         2.057184	       1.088615
	 R(2,4)           =         2.055166	       1.087547
	 R(3,4)           =         2.057186	       1.088616
	 R(4,7)           =         2.866377	       1.516822
	 R(5,7)           =         2.062061	       1.091195
	 R(6,7)           =         2.062039	       1.091184
	 R(7,10)          =         2.865592	       1.516406
	 R(8,10)          =         2.062072	       1.091201
	 R(9,10)          =         2.062034	       1.091181
	 R(10,14)         =         2.866395	       1.516831
	 R(11,14)         =         2.055213	       1.087572
	 R(12,14)         =         2.057151	       1.088597
	 R(13,14)         =         2.057163	       1.088604
	 B(1,4,2)         =         1.884139	     107.953228
	 B(1,4,3)         =         1.879649	     107.695972
	 B(1,4,7)         =         1.932031	     110.697198
	 B(2,4,3)         =         1.884136	     107.953051
	 B(2,4,7)         =         1.949422	     111.693664
	 B(3,4,7)         =         1.932038	     110.697606
	 B(4,7,5)         =         1.915723	     109.762852
	 B(4,7,6)         =         1.915750	     109.764363
	 B(4,7,10)        =         1.965381	     112.608058
	 B(5,7,6)         =         1.858340	     106.475042
	 B(5,7,10)        =         1.902839	     109.024663
	 B(6,7,10)        =         1.902653	     109.014013
	 B(7,10,8)        =         1.902462	     109.003018
	 B(7,10,9)        =         1.903033	     109.035776
	 B(7,10,14)       =         1.965412	     112.609790
	 B(8,10,9)        =         1.858347	     106.475463
	 B(8,10,14)       =         1.915658	     109.759093
	 B(9,10,14)       =         1.915774	     109.765789
	 B(10,14,11)      =         1.949214	     111.681725
	 B(10,14,12)      =         1.932169	     110.705140
	 B(10,14,13)      =         1.932078	     110.699935
	 B(11,14,12)      =         1.884150	     107.953869
	 B(11,14,13)      =         1.883747	     107.930733
	 B(12,14,13)      =         1.880066	     107.719866
	 D(1,4,7,5)       =        -3.118569	    -178.680827
	 D(1,4,7,6)       =        -1.081780	     -61.981401
	 D(1,4,7,10)      =         1.041309	      59.662615
	 D(2,4,7,5)       =        -1.018478	     -58.354475
	 D(2,4,7,6)       =         1.018311	      58.344951
	 D(2,4,7,10)      =         3.141400	     179.988967
	 D(3,4,7,5)       =         1.081614	      61.971931
	 D(3,4,7,6)       =         3.118403	     178.671357
	 D(3,4,7,10)      =        -1.041693	     -59.684627
	 D(4,7,10,8)      =        -1.011895	     -57.977320
	 D(4,7,10,9)      =         1.010190	      57.879627
	 D(4,7,10,14)     =         3.141017	     179.967002
	 D(5,7,10,8)      =         3.140686	     179.948065
	 D(5,7,10,9)      =        -1.120414	     -64.194988
	 D(5,7,10,14)     =         1.010413	      57.892387
	 D(6,7,10,8)      =         1.118611	      64.091683
	 D(6,7,10,9)      =         3.140696	     179.948630
	 D(6,7,10,14)     =        -1.011663	     -57.963996
	 D(7,10,14,11)    =         3.136790	     179.724804
	 D(7,10,14,12)    =         1.036730	      59.400228
	 D(7,10,14,13)    =        -1.046910	     -59.983498
	 D(8,10,14,11)    =         1.013991	      58.097410
	 D(8,10,14,12)    =        -1.086069	     -62.227166
	 D(8,10,14,13)    =         3.113477	     178.389109
	 D(9,10,14,11)    =        -1.022783	     -58.601167
	 D(9,10,14,12)    =        -3.122843	    -178.925743
	 D(9,10,14,13)    =         1.076703	      61.690532

	Current energy   :      -158.1610122210

	Energy change for the previous step:
		Projected    :        -0.0000130294
		Actual       :        -0.0000035969

	Performing BFGS update.
	Previous computed or guess Hessian on step 1.
	Steps to be used in Hessian update: 4 3
	Adding user-defined constraint: Fragment 1; Coordinate 58:
		Value =    -1.046910; Fixed value    =    -1.047200
		Force =    -0.000174; Force constant =     0.600000
	Removing off-diagonal coupling between coordinate 58 and others.
	Taking RFO optimization step.
	Going to follow RFO solution 1.
	Using RFO vector 1.
	Norm of target step-size    0.00138
	Projected energy change by RFO approximation:         0.0000000792

	Back-transformation to cartesian coordinates...
	Could not converge backtransformation.
	Using first guess instead.

	--- Internal Coordinate Step in ANG or DEG, aJ/ANG or AJ/DEG ---
	 ---------------------------------------------------------------------------
	   Coordinate                Previous        Force       Change         New 
	   ----------                --------       ------       ------       ------
	    1 R(1,4)          =      1.088615    -0.000403    -0.000081     1.088534
	    2 R(2,4)          =      1.087547    -0.000352    -0.000073     1.087474
	    3 R(3,4)          =      1.088616    -0.000423    -0.000085     1.088531
	    4 R(4,7)          =      1.516822     0.000431     0.000098     1.516919
	    5 R(5,7)          =      1.091195    -0.000118    -0.000028     1.091167
	    6 R(6,7)          =      1.091184    -0.000126    -0.000029     1.091155
	    7 R(7,10)         =      1.516406     0.000429     0.000087     1.516493
	    8 R(8,10)         =      1.091201    -0.000141    -0.000033     1.091169
	    9 R(9,10)         =      1.091181    -0.000125    -0.000029     1.091152
	   10 R(10,14)        =      1.516831     0.000399     0.000090     1.516921
	   11 R(11,14)        =      1.087572    -0.000404    -0.000083     1.087489
	   12 R(12,14)        =      1.088597    -0.000377    -0.000076     1.088521
	   13 R(13,14)        =      1.088604    -0.000392    -0.000079     1.088525
	   14 B(1,4,2)        =    107.953228     0.000000     0.003324   107.956552
	   15 B(1,4,3)        =    107.695972     0.000001     0.002524   107.698496
	   16 B(1,4,7)        =    110.697198    -0.000001    -0.006717   110.690481
	   17 B(2,4,3)        =    107.953051     0.000000     0.003539   107.956589
	   18 B(2,4,7)        =    111.693664     0.000001     0.003862   111.697525
	   19 B(3,4,7)        =    110.697606    -0.000001    -0.006111   110.691496
	   20 B(4,7,5)        =    109.762852    -0.000001    -0.002156   109.760696
	   21 B(4,7,6)        =    109.764363    -0.000001    -0.003139   109.761223
	   22 B(4,7,10)       =    112.608058     0.000003     0.014242   112.622300
	   23 B(5,7,6)        =    106.475042    -0.000000    -0.014927   106.460115
	   24 B(5,7,10)       =    109.024663    -0.000000     0.002693   109.027357
	   25 B(6,7,10)       =    109.014013    -0.000001     0.001689   109.015701
	   26 B(7,10,8)       =    109.003018    -0.000001     0.004683   109.007701
	   27 B(7,10,9)       =    109.035776     0.000000    -0.000169   109.035607
	   28 B(7,10,14)      =    112.609790     0.000003     0.013935   112.623724
	   29 B(8,10,9)       =    106.475463    -0.000000    -0.014997   106.460466
	   30 B(8,10,14)      =    109.759093    -0.000001    -0.002348   109.756745
	   31 B(9,10,14)      =    109.765789    -0.000001    -0.002690   109.763099
	   32 B(10,14,11)     =    111.681725     0.000000     0.005673   111.687398
	   33 B(10,14,12)     =    110.705140    -0.000000    -0.007469   110.697671
	   34 B(10,14,13)     =    110.699935    -0.000001    -0.006099   110.693836
	   35 B(11,14,12)     =    107.953869     0.000000     0.003026   107.956895
	   36 B(11,14,13)     =    107.930733    -0.000001     0.006008   107.936742
	   37 B(12,14,13)     =    107.719866     0.000002    -0.000833   107.719034
	   38 D(1,4,7,5)      =   -178.680827     0.000000     0.004410  -178.676417
	   39 D(1,4,7,6)      =    -61.981401    -0.000000    -0.016765   -61.998167
	   40 D(1,4,7,10)     =     59.662615    -0.000000    -0.007170    59.655444
	   41 D(2,4,7,5)      =    -58.354475     0.000000     0.006633   -58.347842
	   42 D(2,4,7,6)      =     58.344951    -0.000000    -0.014542    58.330409
	   43 D(2,4,7,10)     =    179.988967    -0.000000    -0.004947   179.984020
	   44 D(3,4,7,5)      =     61.971931     0.000000     0.009542    61.981473
	   45 D(3,4,7,6)      =    178.671357    -0.000000    -0.011634   178.659723
	   46 D(3,4,7,10)     =    -59.684627     0.000000    -0.002039   -59.686666
	   47 D(4,7,10,8)     =    -57.977320     0.000000     0.005760   -57.971560
	   48 D(4,7,10,9)     =     57.879627    -0.000000    -0.009636    57.869991
	   49 D(4,7,10,14)    =    179.967002     0.000000    -0.003865   179.963137
	   50 D(5,7,10,8)     =    179.948065    -0.000000    -0.002917   179.945148
	   51 D(5,7,10,9)     =    -64.194988    -0.000000    -0.018313   -64.213301
	   52 D(5,7,10,14)    =     57.892387     0.000000    -0.012542    57.879845
	   53 D(6,7,10,8)     =     64.091683     0.000000     0.012469    64.104152
	   54 D(6,7,10,9)     =    179.948630    -0.000000    -0.002926   179.945703
	   55 D(6,7,10,14)    =    -57.963996     0.000000     0.002845   -57.961151
	   56 D(7,10,14,11)   =    179.724804    -0.000000    -0.013444   179.711360
	   57 D(7,10,14,12)   =     59.400228    -0.000000    -0.015992    59.384236
	   58 D(7,10,14,13)   =    -59.983498    -0.000001    -0.006182   -59.989680
	   59 D(8,10,14,11)   =     58.097410    -0.000000    -0.027217    58.070193
	   60 D(8,10,14,12)   =    -62.227166    -0.000000    -0.029765   -62.256931
	   61 D(8,10,14,13)   =    178.389109    -0.000001    -0.019955   178.369153
	   62 D(9,10,14,11)   =    -58.601167     0.000000    -0.006107   -58.607274
	   63 D(9,10,14,12)   =   -178.925743     0.000000    -0.008655  -178.934398
	   64 D(9,10,14,13)   =     61.690532    -0.000000     0.001154    61.691686
	 ---------------------------------------------------------------------------
	Successfully symmetrized geometry.
	 Forces used to impose fixed constraints are not included.
	  Forces zeroed: 58 

  ==> Convergence Check <==

  Measures of convergence in internal coordinates in au.
  Criteria marked as inactive (o), active & met (*), and active & unmet ( ).
  ---------------------------------------------------------------------------------------------
   Step     Total Energy     Delta E     MAX Force     RMS Force      MAX Disp      RMS Disp   
  ---------------------------------------------------------------------------------------------
    Convergence Criteria    1.00e-06 *    3.00e-04 *             o    1.20e-03 *             o
  ---------------------------------------------------------------------------------------------
      5    -158.16101222   -3.60e-06      5.23e-05 *    2.26e-05 o    5.19e-04 *    1.73e-04 o  ~
  ---------------------------------------------------------------------------------------------


  **** Optimization is complete! (in 5 steps) ****

  ==> Optimization Summary <==

  Measures of convergence in internal coordinates in au.
  --------------------------------------------------------------------------------------------------------------- ~
   Step         Total Energy             Delta E       MAX Force       RMS Force        MAX Disp        RMS Disp  ~
  --------------------------------------------------------------------------------------------------------------- ~
      1    -158.156819355049   -158.156819355049      0.01306079      0.00562059      0.02504571      0.01250498  ~
      2    -158.159859614521     -0.003040259472      0.00486455      0.00224385      0.02846925      0.01252363  ~
      3    -158.160842662101     -0.000983047580      0.00144971      0.00056985      0.02686089      0.00947947  ~
      4    -158.161008624098     -0.000165961997      0.00041743      0.00013181      0.00401056      0.00132655  ~
      5    -158.161012220954     -0.000003596856      0.00005233      0.00002305      0.00051950      0.00017280  ~
  --------------------------------------------------------------------------------------------------------------- ~

	Writing optimization data to binary file.
	Final energy is   -158.1610122209540
	Final (previous) structure:
	Cartesian Geometry (in Angstrom)
	    H    -2.3490811918   0.0521747436   0.3095610758
	    H    -2.2022002823   1.6925238653  -0.3112335451
	    H    -1.9067306555   0.3186543560  -1.3708944675
	    C    -1.7752449931   0.6933506095  -0.3572878658
	    H     0.2480937561   1.3568806909  -0.6340312773
	    H    -0.1918162846   1.0919982516   1.0372145675
	    C    -0.3083460549   0.6921051008   0.0286569877
	    H    -0.2478842560  -1.3563601219   0.6352417444
	    H     0.1910892053  -1.0927295123  -1.0364558828
	    C     0.3082369356  -0.6921179991  -0.0282579061
	    H     2.2008138172  -1.6933307326   0.3156191582
	    H     1.9079937346  -0.3136927406   1.3685231677
	    H     2.3497795138  -0.0567246134  -0.3138165104
	    C     1.7753492953  -0.6932868316   0.3569116256
	Saving final (previous) structure.
			--------------------------
			 OPTKING Finished Execution 
			--------------------------

    Final optimized geometry and variables:
    Molecular point group: c1
    Full point group: C1

    Geometry (in Angstrom), charge = 0, multiplicity = 1:

    H           -2.349081191814     0.052174743602     0.309561075759
    H           -2.202200282273     1.692523865341    -0.311233545089
    H           -1.906730655543     0.318654356011    -1.370894467479
    C           -1.775244993084     0.693350609454    -0.357287865782
    H            0.248093756087     1.356880690940    -0.634031277268
    H           -0.191816284556     1.091998251557     1.037214567500
    C           -0.308346054899     0.692105100809     0.028656987738
    H           -0.247884256009    -1.356360121914     0.635241744391
    H            0.191089205308    -1.092729512349    -1.036455882802
    C            0.308236935552    -0.692117999144    -0.028257906120
    H            2.200813817154    -1.693330732613     0.315619158200
    H            1.907993734593    -0.313692740629     1.368523167692
    H            2.349779513765    -0.056724613445    -0.313816510444
    C            1.775349295304    -0.693286831618     0.356911625640

	Cleaning optimization helper files.

*** Psi4 exiting successfully. Buy a developer a beer!
