
    -----------------------------------------------------------------------
          Psi4: An Open-Source Ab Initio Electronic Structure Package
                               Psi4 1.1 release

                         Git: Rev {HEAD} add49b9 


    R. M. Parrish, L. A. Burns, D. G. A. Smith, A. C. Simmonett,
    A. E. DePrince III, E. G. Hohenstein, U. Bozkaya, A. Yu. Sokolov,
    R. Di Remigio, R. M. Richard, J. F. Gonthier, A. M. James,
    H. R. McAlexander, A. Kumar, M. Saitow, X. Wang, B. P. Pritchard,
    P. Verma, H. F. Schaefer III, K. Patkowski, R. A. King, E. F. Valeev,
    F. A. Evangelista, J. M. Turney, T. D. Crawford, and C. D. Sherrill,
    J. Chem. Theory Comput. in press (2017).
    (doi: 10.1021/acs.jctc.7b00174)

    -----------------------------------------------------------------------


    Psi4 started on: Wednesday, 14 June 2017 02:53PM

    Process ID:  16173
    PSIDATADIR: /cbio/jclab/home/chayas/anaconda/envs/py35/share/psi4
    Memory:     500.0 MiB
    Threads:    1
    
  ==> Input File <==

--------------------------------------------------------------------------

memory 1000 mb

molecule butane {
  symmetry C1
  0 1 
  H      1.604   0.760   -8.260
  H      1.745   2.388   -8.880
  H      2.043   1.024   -9.930
  C      2.142   1.395   -8.932
  H      4.169   2.051   -9.210
  H      3.731   1.788   -7.539
  C      3.631   1.416   -8.537
  H      3.665   -0.647   -7.940
  H      4.104   -0.384   -9.610
  C      4.203   -0.012   -8.612
  H      5.816   -0.470   -7.270
  H      6.029   1.022   -8.153
  H      6.264   -0.511   -8.958
  C      5.691   0.009   -8.218
  units Angstrom
}

dih_string = "7 10 14 13 230"
set optking fixed_dihedral = $dih_string

optimize('MP2/aug-cc-pvtz')
--------------------------------------------------------------------------

  Memory set to 953.674 MiB by Python driver.
gradient() will perform analytic gradient computation.

*** tstart() called on gpu-1-16.local
*** at Wed Jun 14 14:53:30 2017

    SCF Algorithm Type (re)set to DF.

*** tstart() called on gpu-1-16.local
*** at Wed Jun 14 14:53:30 2017

   => Loading Basis Set <=

    Name: AUG-CC-PVTZ
    Role: ORBITAL
    Keyword: BASIS
    atoms 1-3, 5-6, 8-9, 11-13 entry H          line    34 file /cbio/jclab/home/chayas/anaconda/envs/py35/share/psi4/basis/aug-cc-pvtz.gbs 
    atoms 4, 7, 10, 14         entry C          line   221 file /cbio/jclab/home/chayas/anaconda/envs/py35/share/psi4/basis/aug-cc-pvtz.gbs 


         ---------------------------------------------------------
                                   SCF
            by Justin Turney, Rob Parrish, and Andy Simmonett
                              RHF Reference
                        1 Threads,    953 MiB Core
         ---------------------------------------------------------

  ==> Geometry <==

    Molecular point group: c1
    Full point group: C1

    Geometry (in Angstrom), charge = 0, multiplicity = 1:

       Center              X                  Y                   Z               Mass       
    ------------   -----------------  -----------------  -----------------  -----------------
           H         -2.312793382205     0.057982647118     0.314793382205     1.007825032070
           H         -2.171793382205     1.685982647118    -0.305206617795     1.007825032070
           H         -1.873793382205     0.321982647118    -1.355206617795     1.007825032070
           C         -1.774793382205     0.692982647118    -0.357206617795    12.000000000000
           H          0.252206617795     1.348982647118    -0.635206617795     1.007825032070
           H         -0.185793382205     1.085982647118     1.035793382205     1.007825032070
           C         -0.285793382205     0.713982647118     0.037793382205    12.000000000000
           H         -0.251793382205    -1.349017352882     0.634793382205     1.007825032070
           H          0.187206617795    -1.086017352882    -1.035206617795     1.007825032070
           C          0.286206617795    -0.714017352882    -0.037206617795    12.000000000000
           H          1.899206617795    -1.172017352882     1.304793382205     1.007825032070
           H          2.112206617795     0.319982647118     0.421793382205     1.007825032070
           H          2.347206617795    -1.213017352882    -0.383206617795     1.007825032070
           C          1.774206617795    -0.693017352882     0.356793382205    12.000000000000

  Running in c1 symmetry.

  Rotational constants: A =      0.76951  B =      0.12464  C =      0.11638 [cm^-1]
  Rotational constants: A =  23069.26223  B =   3736.66393  C =   3488.89617 [MHz]
  Nuclear repulsion =  131.847842423082852

  Charge       = 0
  Multiplicity = 1
  Electrons    = 34
  Nalpha       = 17
  Nbeta        = 17

  ==> Algorithm <==

  SCF Algorithm Type is DF.
  DIIS enabled.
  MOM disabled.
  Fractional occupation disabled.
  Guess Type is SAD.
  Energy threshold   = 1.00e-10
  Density threshold  = 1.00e-10
  Integral threshold = 0.00e+00

  ==> Primary Basis <==

  Basis Set: AUG-CC-PVTZ
    Blend: AUG-CC-PVTZ
    Number of shells: 146
    Number of basis function: 414
    Number of Cartesian functions: 470
    Spherical Harmonics?: true
    Max angular momentum: 3

   => Loading Basis Set <=

    Name: (AUG-CC-PVTZ AUX)
    Role: JKFIT
    Keyword: DF_BASIS_SCF
    atoms 1-3, 5-6, 8-9, 11-13 entry H          line    69 file /cbio/jclab/home/chayas/anaconda/envs/py35/share/psi4/basis/aug-cc-pvtz-jkfit.gbs 
    atoms 4, 7, 10, 14         entry C          line   161 file /cbio/jclab/home/chayas/anaconda/envs/py35/share/psi4/basis/aug-cc-pvtz-jkfit.gbs 

  ==> Pre-Iterations <==

   -------------------------------------------------------
    Irrep   Nso     Nmo     Nalpha   Nbeta   Ndocc  Nsocc
   -------------------------------------------------------
     A        414     414       0       0       0       0
   -------------------------------------------------------
    Total     414     414      17      17      17       0
   -------------------------------------------------------

  ==> Integral Setup <==

  ==> DFJK: Density-Fitted J/K Matrices <==

    J tasked:                  Yes
    K tasked:                  Yes
    wK tasked:                  No
    OpenMP threads:              1
    Integrals threads:           1
    Memory (MB):               715
    Algorithm:                Core
    Integral Cache:           NONE
    Schwarz Cutoff:          1E-12
    Fitting Condition:       1E-12

   => Auxiliary Basis Set <=

  Basis Set: (AUG-CC-PVTZ AUX)
    Blend: AUG-CC-PVTZ-JKFIT
    Number of shells: 260
    Number of basis function: 876
    Number of Cartesian functions: 1074
    Spherical Harmonics?: true
    Max angular momentum: 4

  Minimum eigenvalue in the overlap matrix is 8.3618937219E-06.
  Using Symmetric Orthogonalization.

  SCF Guess: Superposition of Atomic Densities via on-the-fly atomic UHF.

  ==> Iterations <==

                           Total Energy        Delta E     RMS |[F,P]|

   @DF-RHF iter   0:  -159.31359445486640   -1.59314e+02   9.96510e-03 
   @DF-RHF iter   1:  -157.26233029310973    2.05126e+00   8.01780e-04 
   @DF-RHF iter   2:  -157.33846787018084   -7.61376e-02   2.70243e-04 DIIS
   @DF-RHF iter   3:  -157.34615135445324   -7.68348e-03   1.01982e-04 DIIS
   @DF-RHF iter   4:  -157.34750275432071   -1.35140e-03   1.68470e-05 DIIS
   @DF-RHF iter   5:  -157.34755546706918   -5.27127e-05   3.94710e-06 DIIS
   @DF-RHF iter   6:  -157.34755851972349   -3.05265e-06   8.93884e-07 DIIS
   @DF-RHF iter   7:  -157.34755866698728   -1.47264e-07   2.31105e-07 DIIS
   @DF-RHF iter   8:  -157.34755867523199   -8.24471e-09   5.24008e-08 DIIS
   @DF-RHF iter   9:  -157.34755867582697   -5.94980e-10   1.29732e-08 DIIS
   @DF-RHF iter  10:  -157.34755867586779   -4.08136e-11   3.20494e-09 DIIS
   @DF-RHF iter  11:  -157.34755867587126   -3.46745e-12   7.30383e-10 DIIS
   @DF-RHF iter  12:  -157.34755867586958    1.67688e-12   2.06917e-10 DIIS
   @DF-RHF iter  13:  -157.34755867587103   -1.44951e-12   5.25760e-11 DIIS

  ==> Post-Iterations <==

    Orbital Energies (a.u.)
    -----------------------

    Doubly Occupied:                                                      

       1A    -11.207501     2A    -11.205275     3A    -11.198306  
       4A    -11.196945     5A     -1.070735     6A     -0.980885  
       7A     -0.861111     8A     -0.795605     9A     -0.646344  
      10A     -0.587241    11A     -0.577643    12A     -0.571665  
      13A     -0.511430    14A     -0.505043    15A     -0.471407  
      16A     -0.469608    17A     -0.440391  

    Virtual:                                                              

      18A      0.032361    19A      0.037799    20A      0.039552  
      21A      0.040112    22A      0.058245    23A      0.059384  
      24A      0.060484    25A      0.061102    26A      0.076230  
      27A      0.083345    28A      0.103393    29A      0.112874  
      30A      0.122389    31A      0.130486    32A      0.139583  
      33A      0.142058    34A      0.142611    35A      0.144484  
      36A      0.148411    37A      0.161247    38A      0.165621  
      39A      0.168147    40A      0.173741    41A      0.196322  
      42A      0.201339    43A      0.217979    44A      0.223744  
      45A      0.241421    46A      0.250850    47A      0.255925  
      48A      0.265719    49A      0.281164    50A      0.282971  
      51A      0.290536    52A      0.310020    53A      0.319002  
      54A      0.335184    55A      0.341258    56A      0.345650  
      57A      0.357893    58A      0.359353    59A      0.360024  
      60A      0.365331    61A      0.370113    62A      0.370996  
      63A      0.384140    64A      0.388929    65A      0.389563  
      66A      0.392407    67A      0.395545    68A      0.397307  
      69A      0.406086    70A      0.409675    71A      0.415050  
      72A      0.432827    73A      0.441305    74A      0.444086  
      75A      0.447782    76A      0.463573    77A      0.464429  
      78A      0.465693    79A      0.469155    80A      0.486846  
      81A      0.490873    82A      0.500852    83A      0.509273  
      84A      0.511092    85A      0.518919    86A      0.521521  
      87A      0.525528    88A      0.531854    89A      0.540579  
      90A      0.544560    91A      0.547261    92A      0.557854  
      93A      0.561165    94A      0.577573    95A      0.583844  
      96A      0.588616    97A      0.591986    98A      0.616599  
      99A      0.619839   100A      0.634258   101A      0.641173  
     102A      0.652424   103A      0.677149   104A      0.680738  
     105A      0.697315   106A      0.718858   107A      0.751929  
     108A      0.774019   109A      0.793021   110A      0.815421  
     111A      0.824558   112A      0.829403   113A      0.833396  
     114A      0.838753   115A      0.846357   116A      0.857122  
     117A      0.867939   118A      0.880083   119A      0.884592  
     120A      0.889327   121A      0.893819   122A      0.899898  
     123A      0.918929   124A      0.920843   125A      0.921639  
     126A      0.926420   127A      0.933459   128A      0.941305  
     129A      0.951357   130A      0.954757   131A      0.966704  
     132A      0.976513   133A      0.982237   134A      0.989985  
     135A      0.993267   136A      1.016658   137A      1.025582  
     138A      1.039478   139A      1.047013   140A      1.060836  
     141A      1.074303   142A      1.080953   143A      1.084804  
     144A      1.091183   145A      1.104574   146A      1.106208  
     147A      1.121177   148A      1.142322   149A      1.153270  
     150A      1.158390   151A      1.159995   152A      1.170342  
     153A      1.185266   154A      1.197642   155A      1.217848  
     156A      1.230750   157A      1.237555   158A      1.245216  
     159A      1.252693   160A      1.257527   161A      1.262298  
     162A      1.270007   163A      1.276717   164A      1.293245  
     165A      1.297758   166A      1.307448   167A      1.314473  
     168A      1.318785   169A      1.338727   170A      1.356841  
     171A      1.365605   172A      1.393195   173A      1.406649  
     174A      1.420729   175A      1.436008   176A      1.449763  
     177A      1.465199   178A      1.479979   179A      1.487372  
     180A      1.495130   181A      1.516957   182A      1.530506  
     183A      1.540338   184A      1.553818   185A      1.569695  
     186A      1.594172   187A      1.601890   188A      1.613277  
     189A      1.626859   190A      1.644204   191A      1.650769  
     192A      1.674402   193A      1.681307   194A      1.694007  
     195A      1.704566   196A      1.704792   197A      1.710989  
     198A      1.718572   199A      1.723831   200A      1.728913  
     201A      1.736292   202A      1.753745   203A      1.757616  
     204A      1.767444   205A      1.770572   206A      1.774709  
     207A      1.786166   208A      1.809096   209A      1.825960  
     210A      1.833870   211A      1.857742   212A      1.880195  
     213A      1.907109   214A      1.913823   215A      1.933146  
     216A      1.962807   217A      1.972533   218A      1.973626  
     219A      1.985188   220A      2.008216   221A      2.013695  
     222A      2.019137   223A      2.035331   224A      2.040566  
     225A      2.056527   226A      2.071805   227A      2.072997  
     228A      2.088219   229A      2.100928   230A      2.151262  
     231A      2.166376   232A      2.193437   233A      2.197777  
     234A      2.215337   235A      2.236951   236A      2.261487  
     237A      2.273479   238A      2.281703   239A      2.299583  
     240A      2.309400   241A      2.321808   242A      2.350672  
     243A      2.364916   244A      2.370282   245A      2.374058  
     246A      2.410023   247A      2.424958   248A      2.451219  
     249A      2.461679   250A      2.481332   251A      2.511114  
     252A      2.544750   253A      2.582966   254A      2.612632  
     255A      2.619977   256A      2.672360   257A      2.789435  
     258A      2.867494   259A      2.953174   260A      3.029849  
     261A      3.182835   262A      3.251579   263A      3.284620  
     264A      3.361737   265A      3.398127   266A      3.420585  
     267A      3.439280   268A      3.457070   269A      3.468132  
     270A      3.483866   271A      3.526500   272A      3.557504  
     273A      3.572519   274A      3.582050   275A      3.592472  
     276A      3.600250   277A      3.624676   278A      3.669682  
     279A      3.679066   280A      3.693376   281A      3.699014  
     282A      3.710592   283A      3.716448   284A      3.740627  
     285A      3.748453   286A      3.780674   287A      3.794282  
     288A      3.799794   289A      3.828171   290A      3.845587  
     291A      3.849345   292A      3.864832   293A      3.880369  
     294A      3.891305   295A      3.916875   296A      3.922828  
     297A      3.959676   298A      3.983138   299A      3.984542  
     300A      4.000835   301A      4.010481   302A      4.013768  
     303A      4.029328   304A      4.040808   305A      4.058589  
     306A      4.068571   307A      4.080096   308A      4.100821  
     309A      4.165298   310A      4.178752   311A      4.197452  
     312A      4.209709   313A      4.239784   314A      4.249786  
     315A      4.252803   316A      4.275080   317A      4.284928  
     318A      4.296787   319A      4.314963   320A      4.328915  
     321A      4.357827   322A      4.371772   323A      4.385156  
     324A      4.438957   325A      4.459534   326A      4.478838  
     327A      4.533062   328A      4.541313   329A      4.559176  
     330A      4.577912   331A      4.608069   332A      4.648792  
     333A      4.667330   334A      4.679102   335A      4.703297  
     336A      4.719276   337A      4.744031   338A      4.755596  
     339A      4.772348   340A      4.805423   341A      4.819959  
     342A      4.874435   343A      4.877194   344A      4.887642  
     345A      4.902154   346A      4.931801   347A      4.952002  
     348A      4.973799   349A      4.985542   350A      5.005557  
     351A      5.027671   352A      5.053646   353A      5.065156  
     354A      5.117276   355A      5.140218   356A      5.153444  
     357A      5.192731   358A      5.210517   359A      5.219737  
     360A      5.255986   361A      5.262649   362A      5.279477  
     363A      5.300896   364A      5.331159   365A      5.353772  
     366A      5.358988   367A      5.373561   368A      5.409324  
     369A      5.438840   370A      5.460164   371A      5.468434  
     372A      5.486673   373A      5.511660   374A      5.528565  
     375A      5.564635   376A      5.579978   377A      5.606630  
     378A      5.648039   379A      5.654969   380A      5.687119  
     381A      5.713336   382A      5.744973   383A      5.764568  
     384A      5.805371   385A      5.819497   386A      5.865918  
     387A      5.893974   388A      5.951848   389A      5.987470  
     390A      6.036367   391A      6.079547   392A      6.139998  
     393A      6.162917   394A      6.187279   395A      6.228677  
     396A      6.245426   397A      6.274285   398A      6.337058  
     399A      6.346423   400A      6.374468   401A      6.412303  
     402A      6.500803   403A      6.561063   404A      6.636187  
     405A      6.753391   406A      6.778485   407A      6.823936  
     408A      6.850974   409A      6.876838   410A      6.980129  
     411A     18.082509   412A     18.218513   413A     18.891492  
     414A     19.929705  

    Final Occupation by Irrep:
              A 
    DOCC [    17 ]

  Energy converged.

  @DF-RHF Final Energy:  -157.34755867587103

   => Energetics <=

    Nuclear Repulsion Energy =            131.8478424230828523
    One-Electron Energy =                -471.7965328692674234
    Two-Electron Energy =                 182.6011317703135433
    DFT Exchange-Correlation Energy =       0.0000000000000000
    Empirical Dispersion Energy =           0.0000000000000000
    PCM Polarization Energy =               0.0000000000000000
    EFP Energy =                            0.0000000000000000
    Total Energy =                       -157.3475586758710278



Properties will be evaluated at   0.000000,   0.000000,   0.000000 Bohr

Properties computed using the SCF density matrix

  Nuclear Dipole Moment: (a.u.)
     X:     0.0019      Y:     0.0008      Z:    -0.0019

  Electronic Dipole Moment: (a.u.)
     X:    -0.0024      Y:    -0.0017      Z:     0.0027

  Dipole Moment: (a.u.)
     X:    -0.0005      Y:    -0.0010      Z:     0.0008     Total:     0.0013

  Dipole Moment: (Debye)
     X:    -0.0012      Y:    -0.0024      Z:     0.0019     Total:     0.0033


*** tstop() called on gpu-1-16.local at Wed Jun 14 14:55:04 2017
Module time:
	user time   =      93.26 seconds =       1.55 minutes
	system time =       0.54 seconds =       0.01 minutes
	total time  =         94 seconds =       1.57 minutes
Total time:
	user time   =      93.27 seconds =       1.55 minutes
	system time =       0.54 seconds =       0.01 minutes
	total time  =         94 seconds =       1.57 minutes

  //>>>>>>>>>>>>>>>>>>>>>>>>>>>>>>>>>>>//
  //               DFMP2               //
  //<<<<<<<<<<<<<<<<<<<<<<<<<<<<<<<<<<<//

   => Loading Basis Set <=

    Name: (AUG-CC-PVTZ AUX)
    Role: RIFIT
    Keyword: DF_BASIS_MP2
    atoms 1-3, 5-6, 8-9, 11-13 entry H          line    29 file /cbio/jclab/home/chayas/anaconda/envs/py35/share/psi4/basis/aug-cc-pvtz-ri.gbs 
    atoms 4, 7, 10, 14         entry C          line   147 file /cbio/jclab/home/chayas/anaconda/envs/py35/share/psi4/basis/aug-cc-pvtz-ri.gbs 

	 --------------------------------------------------------
	                          DF-MP2                         
	      2nd-Order Density-Fitted Moller-Plesset Theory     
	              RMP2 Wavefunction,   1 Threads             
	                                                         
	        Rob Parrish, Justin Turney, Andy Simmonett,      
	           Ed Hohenstein, and C. David Sherrill          
	 --------------------------------------------------------

   => Auxiliary Basis Set <=

  Basis Set: (AUG-CC-PVTZ AUX)
    Blend: AUG-CC-PVTZ-RI
    Number of shells: 252
    Number of basis function: 884
    Number of Cartesian functions: 1094
    Spherical Harmonics?: true
    Max angular momentum: 4

	 --------------------------------------------------------
	                 NBF =   414, NAUX =   884
	 --------------------------------------------------------
	   CLASS    FOCC     OCC    AOCC    AVIR     VIR    FVIR
	   PAIRS       0      17      17     397     397       0
	 --------------------------------------------------------


         ------------------------------------------------------------
                                     CPHF                           
                                  Rob Parrish                       
         ------------------------------------------------------------

  ==> Geometry <==

    Molecular point group: c1
    Full point group: C1

    Geometry (in Angstrom), charge = 0, multiplicity = 1:

       Center              X                  Y                   Z               Mass       
    ------------   -----------------  -----------------  -----------------  -----------------
           H         -2.312793382205     0.057982647118     0.314793382205     1.007825032070
           H         -2.171793382205     1.685982647118    -0.305206617795     1.007825032070
           H         -1.873793382205     0.321982647118    -1.355206617795     1.007825032070
           C         -1.774793382205     0.692982647118    -0.357206617795    12.000000000000
           H          0.252206617795     1.348982647118    -0.635206617795     1.007825032070
           H         -0.185793382205     1.085982647118     1.035793382205     1.007825032070
           C         -0.285793382205     0.713982647118     0.037793382205    12.000000000000
           H         -0.251793382205    -1.349017352882     0.634793382205     1.007825032070
           H          0.187206617795    -1.086017352882    -1.035206617795     1.007825032070
           C          0.286206617795    -0.714017352882    -0.037206617795    12.000000000000
           H          1.899206617795    -1.172017352882     1.304793382205     1.007825032070
           H          2.112206617795     0.319982647118     0.421793382205     1.007825032070
           H          2.347206617795    -1.213017352882    -0.383206617795     1.007825032070
           C          1.774206617795    -0.693017352882     0.356793382205    12.000000000000

  Nuclear repulsion =  131.847842423082852
  Reference energy  = -157.347558675871028

  ==> Basis Set <==

  Basis Set: AUG-CC-PVTZ
    Blend: AUG-CC-PVTZ
    Number of shells: 146
    Number of basis function: 414
    Number of Cartesian functions: 470
    Spherical Harmonics?: true
    Max angular momentum: 3

  ==> CGRSolver (by Rob Parrish) <==

   Number of roots    =         1
   Preconditioning    =    JACOBI
   Convergence cutoff =     1E-06
   Maximum iterations =       100

  ==> CPHFRHamiltonian (by Rob Parrish) <== 

  ==> DFJK: Density-Fitted J/K Matrices <==

    J tasked:                  Yes
    K tasked:                  Yes
    wK tasked:                  No
    OpenMP threads:              1
    Integrals threads:           1
    Memory (MB):               715
    Algorithm:                Core
    Integral Cache:           NONE
    Schwarz Cutoff:          1E-12
    Fitting Condition:       1E-12

   => Auxiliary Basis Set <=

  Basis Set: (AUG-CC-PVTZ AUX)
    Blend: AUG-CC-PVTZ-JKFIT
    Number of shells: 260
    Number of basis function: 876
    Number of Cartesian functions: 1074
    Spherical Harmonics?: true
    Max angular momentum: 4

  ==> CPHF Iterations <==

  => Iterations <=

             Iter  Converged  Remaining    Residual
  CGR           1          0          1   8.175E-02
  CGR           2          0          1   1.314E-02
  CGR           3          0          1   3.419E-03
  CGR           4          0          1   8.055E-04
  CGR           5          0          1   1.187E-04
  CGR           6          0          1   2.165E-05
  CGR           7          0          1   4.198E-06
  CGR           8          0          1   1.141E-06
  CGR           9          1          0   2.928E-07

    CGRSolver converged.

  ==> DFCorrGrad: Density-Fitted Correlated Gradients <==

    OpenMP threads:              1
    Integrals threads:           1
    Memory (MB):               715
    Schwarz Cutoff:          0E+00
    Fitting Condition:       1E-12

   => Auxiliary Basis Set <=

  Basis Set: (AUG-CC-PVTZ AUX)
    Blend: AUG-CC-PVTZ-JKFIT
    Number of shells: 260
    Number of basis function: 876
    Number of Cartesian functions: 1074
    Spherical Harmonics?: true
    Max angular momentum: 4

	-----------------------------------------------------------
	 ==================> DF-MP2 Energies <==================== 
	-----------------------------------------------------------
	 Reference Energy          =    -157.3475586758710278 [Eh]
	 Singles Energy            =      -0.0000000000000000 [Eh]
	 Same-Spin Energy          =      -0.1654794953042353 [Eh]
	 Opposite-Spin Energy      =      -0.6394494009678325 [Eh]
	 Correlation Energy        =      -0.8049288962720678 [Eh]
	 Total Energy              =    -158.1524875721430874 [Eh]
	-----------------------------------------------------------
	 ================> DF-SCS-MP2 Energies <================== 
	-----------------------------------------------------------
	 SCS Same-Spin Scale       =       0.3333333333333333 [-]
	 SCS Opposite-Spin Scale   =       1.2000000000000000 [-]
	 SCS Same-Spin Energy      =      -0.0551598317680784 [Eh]
	 SCS Opposite-Spin Energy  =      -0.7673392811613990 [Eh]
	 SCS Correlation Energy    =      -0.8224991129294774 [Eh]
	 SCS Total Energy          =    -158.1700577888005057 [Eh]
	-----------------------------------------------------------


  -Total Gradient:
     Atom            X                  Y                   Z
    ------   -----------------  -----------------  -----------------
       1        0.007897827898     0.006781160661    -0.006342043305
       2        0.008219447549    -0.009440250174     0.000624320271
       3        0.003186763697     0.004230890746     0.011244173597
       4       -0.025112909865    -0.007360239338    -0.008257021229
       5       -0.007992587434    -0.007722617462     0.006079329358
       6       -0.003478257146    -0.005540219968    -0.011625220613
       7        0.024668151583     0.031325239185     0.011235559897
       8        0.009025545570     0.008012063760    -0.004801313158
       9        0.004954726480     0.004634620061     0.011046011251
      10       -0.016729840577    -0.030267454527    -0.008554686987
      11       -0.006121647768     0.003667579278    -0.010306951868
      12       -0.006990482758    -0.009593637288    -0.001044698114
      13       -0.010202290646     0.004850892391     0.004329420394
      14        0.018675553417     0.006421972678     0.006373120508


*** tstop() called on gpu-1-16.local at Wed Jun 14 15:01:24 2017
Module time:
	user time   =     470.93 seconds =       7.85 minutes
	system time =       3.27 seconds =       0.05 minutes
	total time  =        474 seconds =       7.90 minutes
Total time:
	user time   =     470.94 seconds =       7.85 minutes
	system time =       3.27 seconds =       0.05 minutes
	total time  =        474 seconds =       7.90 minutes

			-----------------------------------------
			 OPTKING 2.0: for geometry optimizations 
			  - R.A. King,  Bethel University        
			-----------------------------------------

	Internal coordinates to be generated automatically.
	Detected frag 1 with atoms:  1 2 3 4 5 6 7 8 9 10 11 12 13 14
	---Fragment 1 Bond Connectivity---
	 1 : 4
	 2 : 4
	 3 : 4
	 4 : 1 2 3 7
	 5 : 7
	 6 : 7
	 7 : 4 5 6 10
	 8 : 10
	 9 : 10
	 10 : 7 8 9 14
	 11 : 14
	 12 : 14
	 13 : 14
	 14 : 10 11 12 13

	Assuming in current code that numbering for constraints corresponds to unified fragment.
	Fixed dihedral atom list: 
	     7    10    14    13
	---Fragment 1 Geometry and Gradient---
	 H          -4.3705460943        0.1095713235        0.5948732808
	 H          -4.1040947096        3.1860454679       -0.5767569216
	 H          -3.5409563220        0.6084590226       -2.5609693611
	 C          -3.3538734348        1.3095474179       -0.6750226805
	 H           0.4766014365        2.5492077611       -1.2003665454
	 H          -0.3510986097        2.0522097881        1.9573658226
	 C          -0.5400712230        1.3492316667        0.0714191420
	 H          -0.4758205344       -2.5492733455        1.1995856433
	 H           0.3537692379       -2.0522753725       -1.9562569986
	 C           0.5408521251       -1.3492972511       -0.0703103180
	 H           3.5889803774       -2.2147918199        2.4657021524
	 H           3.9914920437        0.6046795703        0.7970739770
	 H           4.4355776849       -2.2922705914       -0.7241555599
	 C           3.3527646108       -1.3096130023        0.6742417784
	             0.0078978279        0.0067811607       -0.0063420433
	             0.0082194475       -0.0094402502        0.0006243203
	             0.0031867637        0.0042308907        0.0112441736
	            -0.0251129099       -0.0073602393       -0.0082570212
	            -0.0079925874       -0.0077226175        0.0060793294
	            -0.0034782571       -0.0055402200       -0.0116252206
	             0.0246681516        0.0313252392        0.0112355599
	             0.0090255456        0.0080120638       -0.0048013132
	             0.0049547265        0.0046346201        0.0110460113
	            -0.0167298406       -0.0302674545       -0.0085546870
	            -0.0061216478        0.0036675793       -0.0103069519
	            -0.0069904828       -0.0095936373       -0.0010446981
	            -0.0102022906        0.0048508924        0.0043294204
	             0.0186755534        0.0064219727        0.0063731205

	Previous optimization step data not found.  Starting new optimization.

	---Fragment 1 Intrafragment Coordinates---
	 - Coordinate -           - BOHR/RAD -       - ANG/DEG -
	 R(1,4)           =         2.021436	       1.069698
	 R(2,4)           =         2.023298	       1.070683
	 R(3,4)           =         2.020723	       1.069320
	 R(4,7)           =         2.911397	       1.540645
	 R(5,7)           =         2.022623	       1.070326
	 R(6,7)           =         2.021555	       1.069761
	 R(7,10)          =         2.910419	       1.540128
	 R(8,10)          =         2.021436	       1.069698
	 R(9,10)          =         2.021379	       1.069668
	 R(10,14)         =         2.909087	       1.539422
	 R(11,14)         =         2.021009	       1.069472
	 R(12,14)         =         2.021776	       1.069878
	 R(13,14)         =         2.023268	       1.070668
	 B(1,4,2)         =         1.910870	     109.484805
	 B(1,4,3)         =         1.911121	     109.499161
	 B(1,4,7)         =         1.910399	     109.457783
	 B(2,4,3)         =         1.910042	     109.437340
	 B(2,4,7)         =         1.910564	     109.467262
	 B(3,4,7)         =         1.910803	     109.480971
	 B(4,7,5)         =         1.909937	     109.431343
	 B(4,7,6)         =         1.911630	     109.528316
	 B(4,7,10)        =         1.911154	     109.501062
	 B(5,7,6)         =         1.910605	     109.469614
	 B(5,7,10)        =         1.910047	     109.437654
	 B(6,7,10)        =         1.910425	     109.459295
	 B(7,10,8)        =         1.910303	     109.452301
	 B(7,10,9)        =         1.910824	     109.482155
	 B(7,10,14)       =         1.911213	     109.504437
	 B(8,10,9)        =         1.910417	     109.458846
	 B(8,10,14)       =         1.910766	     109.478806
	 B(9,10,14)       =         1.910276	     109.450772
	 B(10,14,11)      =         1.911061	     109.495710
	 B(10,14,12)      =         1.911167	     109.501820
	 B(10,14,13)      =         1.911110	     109.498538
	 B(11,14,12)      =         1.910592	     109.468867
	 B(11,14,13)      =         1.909829	     109.425163
	 B(12,14,13)      =         1.910039	     109.437179
	 D(1,4,7,5)       =         3.140997	     179.965873
	 D(1,4,7,6)       =        -1.047644	     -60.025575
	 D(1,4,7,10)      =         1.047427	      60.013132
	 D(2,4,7,5)       =        -1.047689	     -60.028143
	 D(2,4,7,6)       =         1.046856	      59.980409
	 D(2,4,7,10)      =        -3.141259	    -179.980883
	 D(3,4,7,5)       =         1.046044	      59.933911
	 D(3,4,7,6)       =         3.140588	     179.942463
	 D(3,4,7,10)      =        -1.047526	     -60.018830
	 D(4,7,10,8)      =        -1.047368	     -60.009777
	 D(4,7,10,9)      =         1.046677	      59.970178
	 D(4,7,10,14)     =         3.141107	     179.972182
	 D(5,7,10,8)      =        -3.140871	    -179.958653
	 D(5,7,10,9)      =        -1.046826	     -59.978698
	 D(5,7,10,14)     =         1.047604	      60.023306
	 D(6,7,10,8)      =         1.048439	      60.071149
	 D(6,7,10,9)      =        -3.140701	    -179.948896
	 D(6,7,10,14)     =        -1.046271	     -59.946893
	 D(7,10,14,11)    =         1.920080	     110.012506
	 D(7,10,14,12)    =        -0.174854	     -10.018382
	 D(7,10,14,13)    =        -2.269140	    -130.012172
	 D(8,10,14,11)    =        -0.174346	      -9.989316
	 D(8,10,14,12)    =        -2.269281	    -130.020204
	 D(8,10,14,13)    =         1.919618	     109.986006
	 D(9,10,14,11)    =        -2.268340	    -129.966286
	 D(9,10,14,12)    =         1.919911	     110.002825
	 D(9,10,14,13)    =        -0.174375	      -9.990964

	Current energy   :      -158.1524875721

	Generating empirical Hessian (Schlegel '84) for each fragment.
	Adding user-defined constraint: Fragment 1; Coordinate 58:
		Value =    -2.269140; Fixed value    =    -2.268928
		Force =     0.000106; Force constant =     0.500000
	Removing off-diagonal coupling between coordinate 58 and others.
	Taking RFO optimization step.
	Going to follow RFO solution 1.
	Using RFO vector 1.

	Determining step-restricting scale parameter for RS-RFO.
	Maximum step size allowed    0.10000

	 Iter      |step|        alpha        rfo_root  
	------------------------------------------------
	    0     0.20891       1.00000           1
	    1     0.15829       6.80505           1
	    2     0.12407      19.01100           1
	    3     0.10628      32.76233           1
	    4     0.10060      39.19557           1
	    5     0.10001      39.94917           1
	------------------------------------------------
	Norm of target step-size    0.10001
	Projected energy change by RFO approximation:        -0.0044604199

	Back-transformation to cartesian coordinates...
	Could not converge backtransformation.
	Using first guess instead.

	--- Internal Coordinate Step in ANG or DEG, aJ/ANG or AJ/DEG ---
	 ---------------------------------------------------------------------------
	   Coordinate                Previous        Force       Change         New 
	   ----------                --------       ------       ------       ------
	    1 R(1,4)          =      1.069698     0.098715     0.011591     1.081288
	    2 R(2,4)          =      1.070683     0.096992     0.011402     1.082085
	    3 R(3,4)          =      1.069320     0.100983     0.011843     1.081164
	    4 R(4,7)          =      1.540645    -0.052671    -0.007276     1.533369
	    5 R(5,7)          =      1.070326     0.102339     0.011990     1.082316
	    6 R(6,7)          =      1.069761     0.107903     0.012624     1.082385
	    7 R(7,10)         =      1.540128    -0.072339    -0.009879     1.530249
	    8 R(8,10)         =      1.069698     0.101433     0.011881     1.081579
	    9 R(9,10)         =      1.069668     0.101965     0.011944     1.081611
	   10 R(10,14)        =      1.539422     0.037709     0.005341     1.544763
	   11 R(11,14)        =      1.069472     0.094699     0.011139     1.080611
	   12 R(12,14)        =      1.069878     0.093555     0.011144     1.081021
	   13 R(13,14)        =      1.070668     0.089047     0.010509     1.081177
	   14 B(1,4,2)        =    109.484805    -0.000251    -0.540774   108.944031
	   15 B(1,4,3)        =    109.499161    -0.000170    -0.417947   109.081214
	   16 B(1,4,7)        =    109.457783     0.000134     0.282810   109.740593
	   17 B(2,4,3)        =    109.437340    -0.000240    -0.516382   108.920958
	   18 B(2,4,7)        =    109.467262     0.000416     0.948161   110.415423
	   19 B(3,4,7)        =    109.480971     0.000111     0.230969   109.711940
	   20 B(4,7,5)        =    109.431343    -0.000114    -0.114857   109.316486
	   21 B(4,7,6)        =    109.528316    -0.000136    -0.171859   109.356458
	   22 B(4,7,10)       =    109.501062     0.000700     1.408124   110.909186
	   23 B(5,7,6)        =    109.469614     0.000024    -0.172223   109.297391
	   24 B(5,7,10)       =    109.437654    -0.000249    -0.509855   108.927799
	   25 B(6,7,10)       =    109.459295    -0.000226    -0.448813   109.010482
	   26 B(7,10,8)       =    109.452301    -0.000302    -0.644862   108.807439
	   27 B(7,10,9)       =    109.482155    -0.000298    -0.645661   108.836495
	   28 B(7,10,14)      =    109.504437     0.000768     1.550786   111.055223
	   29 B(8,10,9)       =    109.458846    -0.000002    -0.279748   109.179098
	   30 B(8,10,14)      =    109.478806    -0.000093    -0.025486   109.453321
	   31 B(9,10,14)      =    109.450772    -0.000075     0.028922   109.479694
	   32 B(10,14,11)     =    109.495710     0.000399     0.895842   110.391552
	   33 B(10,14,12)     =    109.501820     0.000211     0.442692   109.944512
	   34 B(10,14,13)     =    109.498538     0.000459     1.030018   110.528557
	   35 B(11,14,12)     =    109.468867    -0.000330    -0.763543   108.705324
	   36 B(11,14,13)     =    109.425163    -0.000394    -0.840125   108.585039
	   37 B(12,14,13)     =    109.437179    -0.000346    -0.801678   108.635501
	   38 D(1,4,7,5)      =    179.965873     0.000007     0.088841   180.054714
	   39 D(1,4,7,6)      =    -60.025575    -0.000021    -0.295944   -60.321519
	   40 D(1,4,7,10)     =     60.013132    -0.000005    -0.082308    59.930824
	   41 D(2,4,7,5)      =    -60.028143     0.000014     0.188556   -59.839587
	   42 D(2,4,7,6)      =     59.980409    -0.000015    -0.196228    59.784181
	   43 D(2,4,7,10)     =   -179.980883     0.000001     0.017407  -179.963476
	   44 D(3,4,7,5)      =     59.933911     0.000020     0.285337    60.219248
	   45 D(3,4,7,6)      =    179.942463    -0.000008    -0.099447   179.843015
	   46 D(3,4,7,10)     =    -60.018830     0.000008     0.114188   -59.904641
	   47 D(4,7,10,8)     =    -60.009777     0.000044     0.574912   -59.434864
	   48 D(4,7,10,9)     =     59.970178    -0.000041    -0.531819    59.438360
	   49 D(4,7,10,14)    =    179.972182     0.000004     0.055332   180.027513
	   50 D(5,7,10,8)     =   -179.958653     0.000012     0.168719  -179.789934
	   51 D(5,7,10,9)     =    -59.978698    -0.000072    -0.938012   -60.916710
	   52 D(5,7,10,14)    =     60.023306    -0.000027    -0.350862    59.672444
	   53 D(6,7,10,8)     =     60.071149     0.000072     0.951864    61.023013
	   54 D(6,7,10,9)     =   -179.948896    -0.000013    -0.154867  -180.103763
	   55 D(6,7,10,14)    =    -59.946893     0.000033     0.432283   -59.514610
	   56 D(7,10,14,11)   =    110.012506    -0.000013    -0.208945   109.803561
	   57 D(7,10,14,12)   =    -10.018382    -0.000006    -0.102819   -10.121201
	   58 D(7,10,14,13)   =   -130.012172    -0.000003    -0.033915  -130.046087
	   59 D(8,10,14,11)   =     -9.989316    -0.000023    -0.362054   -10.351370
	   60 D(8,10,14,12)   =   -130.020204    -0.000016    -0.255928  -130.276132
	   61 D(8,10,14,13)   =    109.986006    -0.000013    -0.187024   109.798982
	   62 D(9,10,14,11)   =   -129.966286     0.000001    -0.021897  -129.988183
	   63 D(9,10,14,12)   =    110.002825     0.000007     0.084229   110.087055
	   64 D(9,10,14,13)   =     -9.990964     0.000011     0.153133    -9.837831
	 ---------------------------------------------------------------------------
	Successfully symmetrized geometry.
	 Forces used to impose fixed constraints are not included.
	  Forces zeroed: 58 

  ==> Convergence Check <==

  Measures of convergence in internal coordinates in au.
  Criteria marked as inactive (o), active & met (*), and active & unmet ( ).
  --------------------------------------------------------------------------------------------- ~
   Step     Total Energy     Delta E     MAX Force     RMS Force      MAX Disp      RMS Disp    ~
  --------------------------------------------------------------------------------------------- ~
    Convergence Criteria    1.00e-06 *    3.00e-04 *             o    1.20e-03 *             o  ~
  --------------------------------------------------------------------------------------------- ~
      1    -158.15248757   -1.58e+02      1.31e-02      5.71e-03 o    2.71e-02      1.25e-02 o  ~
  ---------------------------------------------------------------------------------------------

	Writing optimization data to binary file.
	Structure for next step:
	Cartesian Geometry (in Angstrom)
	    H    -2.3337469279   0.0597222204   0.3175266475
	    H    -2.1901183685   1.6994866403  -0.3072394922
	    H    -1.8909190725   0.3257278073  -1.3663936351
	    C    -1.7814575002   0.6988010082  -0.3575578855
	    H     0.2471827342   1.3483925859  -0.6460260276
	    H    -0.1955175438   1.0831929961   1.0424446996
	    C    -0.2986948317   0.7063064533   0.0330545328
	    H    -0.2580383905  -1.3447970985   0.6412960225
	    H     0.1849758475  -1.0785532715  -1.0442871917
	    C     0.2911803792  -0.7040324852  -0.0351599942
	    H     1.9233447087  -1.1831219096   1.3153214501
	    H     2.1456373885   0.3162574779   0.4276064030
	    H     2.3731113391  -1.2261573310  -0.3809227172
	    C     1.7849528869  -0.7004680338   0.3584445390
			--------------------------
			 OPTKING Finished Execution 
			--------------------------

    Structure for next step:
    Molecular point group: c1
    Full point group: C1

    Geometry (in Angstrom), charge = 0, multiplicity = 1:

    H           -2.333019102693     0.059594210363     0.317790167993
    H           -2.189390543317     1.699358630189    -0.306975971708
    H           -1.890191247236     0.325599797200    -1.366130114659
    C           -1.780729674951     0.698672998135    -0.357294365032
    H            0.247910559424     1.348264575846    -0.645762507138
    H           -0.194789718549     1.083064986076     1.042708220063
    C           -0.297967006474     0.706178443187     0.033318053260
    H           -0.257310565233    -1.344925108583     0.641559542953
    H            0.185703672760    -1.078681281562    -1.044023671210
    C            0.291908204384    -0.704160495286    -0.034896473672
    H            1.924072533891    -1.183249919700     1.315584970567
    H            2.146365213727     0.316129467800     0.427869923510
    H            2.373839164308    -1.226285341089    -0.380659196677
    C            1.785680712124    -0.700596043901     0.358708059492

gradient() will perform analytic gradient computation.

*** tstart() called on gpu-1-16.local
*** at Wed Jun 14 15:01:24 2017

    SCF Algorithm Type (re)set to DF.

*** tstart() called on gpu-1-16.local
*** at Wed Jun 14 15:01:24 2017

   => Loading Basis Set <=

    Name: AUG-CC-PVTZ
    Role: ORBITAL
    Keyword: BASIS
    atoms 1-3, 5-6, 8-9, 11-13 entry H          line    34 file /cbio/jclab/home/chayas/anaconda/envs/py35/share/psi4/basis/aug-cc-pvtz.gbs 
    atoms 4, 7, 10, 14         entry C          line   221 file /cbio/jclab/home/chayas/anaconda/envs/py35/share/psi4/basis/aug-cc-pvtz.gbs 


         ---------------------------------------------------------
                                   SCF
            by Justin Turney, Rob Parrish, and Andy Simmonett
                              RHF Reference
                        1 Threads,    953 MiB Core
         ---------------------------------------------------------

  ==> Geometry <==

    Molecular point group: c1
    Full point group: C1

    Geometry (in Angstrom), charge = 0, multiplicity = 1:

       Center              X                  Y                   Z               Mass       
    ------------   -----------------  -----------------  -----------------  -----------------
           H         -2.333019102693     0.059594210363     0.317790167993     1.007825032070
           H         -2.189390543317     1.699358630189    -0.306975971708     1.007825032070
           H         -1.890191247236     0.325599797200    -1.366130114659     1.007825032070
           C         -1.780729674951     0.698672998135    -0.357294365032    12.000000000000
           H          0.247910559424     1.348264575846    -0.645762507138     1.007825032070
           H         -0.194789718549     1.083064986076     1.042708220063     1.007825032070
           C         -0.297967006474     0.706178443187     0.033318053260    12.000000000000
           H         -0.257310565233    -1.344925108583     0.641559542953     1.007825032070
           H          0.185703672760    -1.078681281562    -1.044023671210     1.007825032070
           C          0.291908204384    -0.704160495286    -0.034896473672    12.000000000000
           H          1.924072533891    -1.183249919700     1.315584970567     1.007825032070
           H          2.146365213727     0.316129467800     0.427869923510     1.007825032070
           H          2.373839164308    -1.226285341089    -0.380659196677     1.007825032070
           C          1.785680712124    -0.700596043901     0.358708059492    12.000000000000

  Running in c1 symmetry.

  Rotational constants: A =      0.77697  B =      0.12291  C =      0.11519 [cm^-1]
  Rotational constants: A =  23293.11681  B =   3684.62819  C =   3453.26049 [MHz]
  Nuclear repulsion =  131.262628282264615

  Charge       = 0
  Multiplicity = 1
  Electrons    = 34
  Nalpha       = 17
  Nbeta        = 17

  ==> Algorithm <==

  SCF Algorithm Type is DF.
  DIIS enabled.
  MOM disabled.
  Fractional occupation disabled.
  Guess Type is READ.
  Energy threshold   = 1.00e-10
  Density threshold  = 1.00e-10
  Integral threshold = 0.00e+00

  ==> Primary Basis <==

  Basis Set: AUG-CC-PVTZ
    Blend: AUG-CC-PVTZ
    Number of shells: 146
    Number of basis function: 414
    Number of Cartesian functions: 470
    Spherical Harmonics?: true
    Max angular momentum: 3

   => Loading Basis Set <=

    Name: (AUG-CC-PVTZ AUX)
    Role: JKFIT
    Keyword: DF_BASIS_SCF
    atoms 1-3, 5-6, 8-9, 11-13 entry H          line    69 file /cbio/jclab/home/chayas/anaconda/envs/py35/share/psi4/basis/aug-cc-pvtz-jkfit.gbs 
    atoms 4, 7, 10, 14         entry C          line   161 file /cbio/jclab/home/chayas/anaconda/envs/py35/share/psi4/basis/aug-cc-pvtz-jkfit.gbs 

  Reading orbitals from file 180, no projection.

  ==> Pre-Iterations <==

   -------------------------------------------------------
    Irrep   Nso     Nmo     Nalpha   Nbeta   Ndocc  Nsocc
   -------------------------------------------------------
     A        414     414       0       0       0       0
   -------------------------------------------------------
    Total     414     414      17      17      17       0
   -------------------------------------------------------

  ==> Integral Setup <==

  ==> DFJK: Density-Fitted J/K Matrices <==

    J tasked:                  Yes
    K tasked:                  Yes
    wK tasked:                  No
    OpenMP threads:              1
    Integrals threads:           1
    Memory (MB):               715
    Algorithm:                Core
    Integral Cache:           NONE
    Schwarz Cutoff:          1E-12
    Fitting Condition:       1E-12

   => Auxiliary Basis Set <=

  Basis Set: (AUG-CC-PVTZ AUX)
    Blend: AUG-CC-PVTZ-JKFIT
    Number of shells: 260
    Number of basis function: 876
    Number of Cartesian functions: 1074
    Spherical Harmonics?: true
    Max angular momentum: 4

  Minimum eigenvalue in the overlap matrix is 8.9531372779E-06.
  Using Symmetric Orthogonalization.

  SCF Guess: Orbitals guess was supplied from a previous computation.

  ==> Iterations <==

                           Total Energy        Delta E     RMS |[F,P]|

   @DF-RHF iter   0:  -157.27568178266287   -1.57276e+02   1.22212e-04 
   @DF-RHF iter   1:  -157.35017902228697   -7.44972e-02   4.84606e-05 
   @DF-RHF iter   2:  -157.35041769994857   -2.38678e-04   2.50164e-05 DIIS
   @DF-RHF iter   3:  -157.35046859482543   -5.08949e-05   2.73631e-06 DIIS
   @DF-RHF iter   4:  -157.35046994081989   -1.34599e-06   7.39425e-07 DIIS
   @DF-RHF iter   5:  -157.35047002399898   -8.31791e-08   2.48442e-07 DIIS
   @DF-RHF iter   6:  -157.35047003367490   -9.67592e-09   4.35426e-08 DIIS
   @DF-RHF iter   7:  -157.35047003409204   -4.17145e-10   6.97151e-09 DIIS
   @DF-RHF iter   8:  -157.35047003410082   -8.78231e-12   1.52080e-09 DIIS
   @DF-RHF iter   9:  -157.35047003410276   -1.93268e-12   3.55031e-10 DIIS
   @DF-RHF iter  10:  -157.35047003410412   -1.36424e-12   8.19112e-11 DIIS

  ==> Post-Iterations <==

    Orbital Energies (a.u.)
    -----------------------

    Doubly Occupied:                                                      

       1A    -11.210492     2A    -11.209427     3A    -11.203358  
       4A    -11.202723     5A     -1.069965     6A     -0.978516  
       7A     -0.860668     8A     -0.790139     9A     -0.643591  
      10A     -0.583813    11A     -0.573567    12A     -0.572496  
      13A     -0.510106    14A     -0.502095    15A     -0.466963  
      16A     -0.465365    17A     -0.447927  

    Virtual:                                                              

      18A      0.032353    19A      0.037597    20A      0.039639  
      21A      0.040170    22A      0.058180    23A      0.059333  
      24A      0.060454    25A      0.061291    26A      0.076181  
      27A      0.083215    28A      0.103304    29A      0.112759  
      30A      0.122375    31A      0.130621    32A      0.139512  
      33A      0.141650    34A      0.142420    35A      0.144317  
      36A      0.148404    37A      0.161296    38A      0.165978  
      39A      0.168086    40A      0.173669    41A      0.196542  
      42A      0.201221    43A      0.218213    44A      0.223608  
      45A      0.240071    46A      0.249815    47A      0.254071  
      48A      0.264591    49A      0.279404    50A      0.281705  
      51A      0.289550    52A      0.310388    53A      0.318812  
      54A      0.334999    55A      0.340396    56A      0.345371  
      57A      0.356814    58A      0.357751    59A      0.359148  
      60A      0.364081    61A      0.369553    62A      0.369692  
      63A      0.383528    64A      0.388188    65A      0.388645  
      66A      0.391576    67A      0.394833    68A      0.396303  
      69A      0.405038    70A      0.408777    71A      0.414458  
      72A      0.431244    73A      0.439722    74A      0.440736  
      75A      0.446998    76A      0.460962    77A      0.461553  
      78A      0.464752    79A      0.466674    80A      0.486105  
      81A      0.489735    82A      0.498891    83A      0.507894  
      84A      0.508991    85A      0.517645    86A      0.519913  
      87A      0.524606    88A      0.530451    89A      0.539054  
      90A      0.544084    91A      0.547146    92A      0.555861  
      93A      0.559939    94A      0.577004    95A      0.584396  
      96A      0.588329    97A      0.591047    98A      0.614436  
      99A      0.617788   100A      0.634138   101A      0.639065  
     102A      0.650677   103A      0.675281   104A      0.678982  
     105A      0.698356   106A      0.717486   107A      0.750581  
     108A      0.773112   109A      0.791661   110A      0.814520  
     111A      0.823766   112A      0.828398   113A      0.831627  
     114A      0.839166   115A      0.844288   116A      0.855795  
     117A      0.866174   118A      0.876397   119A      0.882028  
     120A      0.889365   121A      0.893509   122A      0.900221  
     123A      0.917423   124A      0.918631   125A      0.919618  
     126A      0.924133   127A      0.929064   128A      0.939991  
     129A      0.947430   130A      0.953091   131A      0.964045  
     132A      0.975161   133A      0.980839   134A      0.988271  
     135A      0.991559   136A      1.016109   137A      1.026564  
     138A      1.036468   139A      1.044767   140A      1.057138  
     141A      1.072215   142A      1.078503   143A      1.081846  
     144A      1.088356   145A      1.101051   146A      1.103765  
     147A      1.119468   148A      1.139178   149A      1.149815  
     150A      1.155664   151A      1.157754   152A      1.166053  
     153A      1.181390   154A      1.190580   155A      1.214271  
     156A      1.226352   157A      1.232542   158A      1.242347  
     159A      1.249539   160A      1.253581   161A      1.257159  
     162A      1.266563   163A      1.274397   164A      1.288877  
     165A      1.294477   166A      1.302477   167A      1.311950  
     168A      1.312616   169A      1.335660   170A      1.351160  
     171A      1.362844   172A      1.389208   173A      1.402358  
     174A      1.416350   175A      1.430983   176A      1.444199  
     177A      1.460055   178A      1.476744   179A      1.485538  
     180A      1.492219   181A      1.512384   182A      1.529782  
     183A      1.537367   184A      1.546929   185A      1.569456  
     186A      1.592775   187A      1.599576   188A      1.608664  
     189A      1.616121   190A      1.637628   191A      1.645303  
     192A      1.669553   193A      1.676709   194A      1.689026  
     195A      1.700478   196A      1.701422   197A      1.706762  
     198A      1.716563   199A      1.722883   200A      1.726852  
     201A      1.734001   202A      1.751612   203A      1.752785  
     204A      1.762903   205A      1.766341   206A      1.768877  
     207A      1.785389   208A      1.806958   209A      1.823834  
     210A      1.833064   211A      1.856121   212A      1.875622  
     213A      1.902915   214A      1.911863   215A      1.929708  
     216A      1.954840   217A      1.964618   218A      1.967977  
     219A      1.978009   220A      2.002142   221A      2.005728  
     222A      2.013672   223A      2.027829   224A      2.035379  
     225A      2.049207   226A      2.061346   227A      2.067989  
     228A      2.083800   229A      2.095591   230A      2.140706  
     231A      2.161059   232A      2.184461   233A      2.192724  
     234A      2.213703   235A      2.232109   236A      2.255416  
     237A      2.266056   238A      2.274234   239A      2.288567  
     240A      2.302115   241A      2.313191   242A      2.335165  
     243A      2.357302   244A      2.366076   245A      2.373528  
     246A      2.405962   247A      2.415811   248A      2.438946  
     249A      2.462027   250A      2.481475   251A      2.505536  
     252A      2.540508   253A      2.582739   254A      2.611793  
     255A      2.622640   256A      2.669534   257A      2.793000  
     258A      2.872983   259A      2.964793   260A      3.045528  
     261A      3.180318   262A      3.248273   263A      3.282528  
     264A      3.366883   265A      3.395214   266A      3.421651  
     267A      3.443524   268A      3.455086   269A      3.468952  
     270A      3.483811   271A      3.518322   272A      3.559112  
     273A      3.572728   274A      3.587396   275A      3.589867  
     276A      3.602054   277A      3.624806   278A      3.663029  
     279A      3.671900   280A      3.683063   281A      3.693463  
     282A      3.707271   283A      3.714575   284A      3.734993  
     285A      3.749358   286A      3.783827   287A      3.791634  
     288A      3.799605   289A      3.825984   290A      3.836605  
     291A      3.846696   292A      3.860657   293A      3.879430  
     294A      3.887589   295A      3.906767   296A      3.912769  
     297A      3.955105   298A      3.974614   299A      3.980652  
     300A      3.992430   301A      3.998913   302A      4.003926  
     303A      4.015811   304A      4.029434   305A      4.053450  
     306A      4.062576   307A      4.070192   308A      4.091456  
     309A      4.161331   310A      4.173217   311A      4.190747  
     312A      4.201172   313A      4.227839   314A      4.233884  
     315A      4.238777   316A      4.260453   317A      4.267099  
     318A      4.281981   319A      4.302520   320A      4.314646  
     321A      4.354063   322A      4.356839   323A      4.374177  
     324A      4.422349   325A      4.443427   326A      4.463407  
     327A      4.510929   328A      4.521412   329A      4.547931  
     330A      4.556898   331A      4.594755   332A      4.628677  
     333A      4.645648   334A      4.663578   335A      4.691404  
     336A      4.701290   337A      4.727565   338A      4.735932  
     339A      4.755218   340A      4.799869   341A      4.805144  
     342A      4.857757   343A      4.859929   344A      4.867321  
     345A      4.880809   346A      4.913659   347A      4.936877  
     348A      4.956745   349A      4.968751   350A      4.990193  
     351A      5.015844   352A      5.032052   353A      5.044164  
     354A      5.092952   355A      5.124542   356A      5.126023  
     357A      5.163889   358A      5.196958   359A      5.198499  
     360A      5.230857   361A      5.244964   362A      5.256523  
     363A      5.273907   364A      5.311804   365A      5.329541  
     366A      5.335189   367A      5.354034   368A      5.383201  
     369A      5.416145   370A      5.429847   371A      5.446482  
     372A      5.460498   373A      5.492829   374A      5.498992  
     375A      5.538726   376A      5.555519   377A      5.571531  
     378A      5.612644   379A      5.617847   380A      5.660195  
     381A      5.684610   382A      5.721315   383A      5.750000  
     384A      5.775229   385A      5.787731   386A      5.825677  
     387A      5.856504   388A      5.919819   389A      5.953550  
     390A      6.011158   391A      6.036896   392A      6.096778  
     393A      6.137915   394A      6.150577   395A      6.191885  
     396A      6.201074   397A      6.236258   398A      6.299601  
     399A      6.305610   400A      6.339318   401A      6.374861  
     402A      6.469638   403A      6.557286   404A      6.607961  
     405A      6.742188   406A      6.774418   407A      6.820731  
     408A      6.846042   409A      6.870168   410A      6.982620  
     411A     17.897447   412A     18.118982   413A     18.788676  
     414A     19.674489  

    Final Occupation by Irrep:
              A 
    DOCC [    17 ]

  Energy converged.

  @DF-RHF Final Energy:  -157.35047003410412

   => Energetics <=

    Nuclear Repulsion Energy =            131.2626282822646147
    One-Electron Energy =                -470.6437764243113406
    Two-Electron Energy =                 182.0306781079426344
    DFT Exchange-Correlation Energy =       0.0000000000000000
    Empirical Dispersion Energy =           0.0000000000000000
    PCM Polarization Energy =               0.0000000000000000
    EFP Energy =                            0.0000000000000000
    Total Energy =                       -157.3504700341041200



Properties will be evaluated at   0.000000,   0.000000,   0.000000 Bohr

Properties computed using the SCF density matrix

  Nuclear Dipole Moment: (a.u.)
     X:     0.0124      Y:    -0.0011      Z:     0.0018

  Electronic Dipole Moment: (a.u.)
     X:    -0.0129      Y:     0.0016      Z:    -0.0012

  Dipole Moment: (a.u.)
     X:    -0.0005      Y:     0.0005      Z:     0.0006     Total:     0.0010

  Dipole Moment: (Debye)
     X:    -0.0013      Y:     0.0014      Z:     0.0016     Total:     0.0025


*** tstop() called on gpu-1-16.local at Wed Jun 14 15:02:50 2017
Module time:
	user time   =      84.59 seconds =       1.41 minutes
	system time =       0.43 seconds =       0.01 minutes
	total time  =         86 seconds =       1.43 minutes
Total time:
	user time   =     555.61 seconds =       9.26 minutes
	system time =       3.80 seconds =       0.06 minutes
	total time  =        560 seconds =       9.33 minutes

  //>>>>>>>>>>>>>>>>>>>>>>>>>>>>>>>>>>>//
  //               DFMP2               //
  //<<<<<<<<<<<<<<<<<<<<<<<<<<<<<<<<<<<//

   => Loading Basis Set <=

    Name: (AUG-CC-PVTZ AUX)
    Role: RIFIT
    Keyword: DF_BASIS_MP2
    atoms 1-3, 5-6, 8-9, 11-13 entry H          line    29 file /cbio/jclab/home/chayas/anaconda/envs/py35/share/psi4/basis/aug-cc-pvtz-ri.gbs 
    atoms 4, 7, 10, 14         entry C          line   147 file /cbio/jclab/home/chayas/anaconda/envs/py35/share/psi4/basis/aug-cc-pvtz-ri.gbs 

	 --------------------------------------------------------
	                          DF-MP2                         
	      2nd-Order Density-Fitted Moller-Plesset Theory     
	              RMP2 Wavefunction,   1 Threads             
	                                                         
	        Rob Parrish, Justin Turney, Andy Simmonett,      
	           Ed Hohenstein, and C. David Sherrill          
	 --------------------------------------------------------

   => Auxiliary Basis Set <=

  Basis Set: (AUG-CC-PVTZ AUX)
    Blend: AUG-CC-PVTZ-RI
    Number of shells: 252
    Number of basis function: 884
    Number of Cartesian functions: 1094
    Spherical Harmonics?: true
    Max angular momentum: 4

	 --------------------------------------------------------
	                 NBF =   414, NAUX =   884
	 --------------------------------------------------------
	   CLASS    FOCC     OCC    AOCC    AVIR     VIR    FVIR
	   PAIRS       0      17      17     397     397       0
	 --------------------------------------------------------


         ------------------------------------------------------------
                                     CPHF                           
                                  Rob Parrish                       
         ------------------------------------------------------------

  ==> Geometry <==

    Molecular point group: c1
    Full point group: C1

    Geometry (in Angstrom), charge = 0, multiplicity = 1:

       Center              X                  Y                   Z               Mass       
    ------------   -----------------  -----------------  -----------------  -----------------
           H         -2.333019102693     0.059594210363     0.317790167993     1.007825032070
           H         -2.189390543317     1.699358630189    -0.306975971708     1.007825032070
           H         -1.890191247236     0.325599797200    -1.366130114659     1.007825032070
           C         -1.780729674951     0.698672998135    -0.357294365032    12.000000000000
           H          0.247910559424     1.348264575846    -0.645762507138     1.007825032070
           H         -0.194789718549     1.083064986076     1.042708220063     1.007825032070
           C         -0.297967006474     0.706178443187     0.033318053260    12.000000000000
           H         -0.257310565233    -1.344925108583     0.641559542953     1.007825032070
           H          0.185703672760    -1.078681281562    -1.044023671210     1.007825032070
           C          0.291908204384    -0.704160495286    -0.034896473672    12.000000000000
           H          1.924072533891    -1.183249919700     1.315584970567     1.007825032070
           H          2.146365213727     0.316129467800     0.427869923510     1.007825032070
           H          2.373839164308    -1.226285341089    -0.380659196677     1.007825032070
           C          1.785680712124    -0.700596043901     0.358708059492    12.000000000000

  Nuclear repulsion =  131.262628282264615
  Reference energy  = -157.350470034104120

  ==> Basis Set <==

  Basis Set: AUG-CC-PVTZ
    Blend: AUG-CC-PVTZ
    Number of shells: 146
    Number of basis function: 414
    Number of Cartesian functions: 470
    Spherical Harmonics?: true
    Max angular momentum: 3

  ==> CGRSolver (by Rob Parrish) <==

   Number of roots    =         1
   Preconditioning    =    JACOBI
   Convergence cutoff =     1E-06
   Maximum iterations =       100

  ==> CPHFRHamiltonian (by Rob Parrish) <== 

  ==> DFJK: Density-Fitted J/K Matrices <==

    J tasked:                  Yes
    K tasked:                  Yes
    wK tasked:                  No
    OpenMP threads:              1
    Integrals threads:           1
    Memory (MB):               715
    Algorithm:                Core
    Integral Cache:           NONE
    Schwarz Cutoff:          1E-12
    Fitting Condition:       1E-12

   => Auxiliary Basis Set <=

  Basis Set: (AUG-CC-PVTZ AUX)
    Blend: AUG-CC-PVTZ-JKFIT
    Number of shells: 260
    Number of basis function: 876
    Number of Cartesian functions: 1074
    Spherical Harmonics?: true
    Max angular momentum: 4

  ==> CPHF Iterations <==

  => Iterations <=

             Iter  Converged  Remaining    Residual
  CGR           1          0          1   8.293E-02
  CGR           2          0          1   1.330E-02
  CGR           3          0          1   3.488E-03
  CGR           4          0          1   8.141E-04
  CGR           5          0          1   1.197E-04
  CGR           6          0          1   2.187E-05
  CGR           7          0          1   3.960E-06
  CGR           8          1          0   9.657E-07

    CGRSolver converged.

  ==> DFCorrGrad: Density-Fitted Correlated Gradients <==

    OpenMP threads:              1
    Integrals threads:           1
    Memory (MB):               715
    Schwarz Cutoff:          0E+00
    Fitting Condition:       1E-12

   => Auxiliary Basis Set <=

  Basis Set: (AUG-CC-PVTZ AUX)
    Blend: AUG-CC-PVTZ-JKFIT
    Number of shells: 260
    Number of basis function: 876
    Number of Cartesian functions: 1074
    Spherical Harmonics?: true
    Max angular momentum: 4

	-----------------------------------------------------------
	 ==================> DF-MP2 Energies <==================== 
	-----------------------------------------------------------
	 Reference Energy          =    -157.3504700341041200 [Eh]
	 Singles Energy            =      -0.0000000000000001 [Eh]
	 Same-Spin Energy          =      -0.1653398554634768 [Eh]
	 Opposite-Spin Energy      =      -0.6397935281280166 [Eh]
	 Correlation Energy        =      -0.8051333835914934 [Eh]
	 Total Energy              =    -158.1556034176956018 [Eh]
	-----------------------------------------------------------
	 ================> DF-SCS-MP2 Energies <================== 
	-----------------------------------------------------------
	 SCS Same-Spin Scale       =       0.3333333333333333 [-]
	 SCS Opposite-Spin Scale   =       1.2000000000000000 [-]
	 SCS Same-Spin Energy      =      -0.0551132851544923 [Eh]
	 SCS Opposite-Spin Energy  =      -0.7677522337536199 [Eh]
	 SCS Correlation Energy    =      -0.8228655189081123 [Eh]
	 SCS Total Energy          =    -158.1733355530122367 [Eh]
	-----------------------------------------------------------


  -Total Gradient:
     Atom            X                  Y                   Z
    ------   -----------------  -----------------  -----------------
       1        0.003662280601     0.002343168450    -0.001474668080
       2        0.003490115831    -0.002484501211     0.000504669744
       3        0.002248910845     0.001624669101     0.003740169970
       4       -0.014228556226    -0.003881451070    -0.004582251083
       5       -0.003677940607    -0.003920315456     0.000541998559
       6       -0.002688272720    -0.003565021432    -0.003465090021
       7        0.014182980397     0.016394797589     0.005765032850
       8        0.004086527547     0.004286422411     0.000335563882
       9        0.003290770942     0.002946958360     0.003290631348
      10       -0.012328196255    -0.016190878632    -0.005297773380
      11       -0.003045961258     0.000487900553    -0.003534300771
      12       -0.003300103125    -0.003144838456    -0.000319279239
      13       -0.004135865790     0.001641385574     0.000588908128
      14        0.012443309823     0.003461704219     0.003906388093


*** tstop() called on gpu-1-16.local at Wed Jun 14 15:08:31 2017
Module time:
	user time   =     423.53 seconds =       7.06 minutes
	system time =       3.08 seconds =       0.05 minutes
	total time  =        427 seconds =       7.12 minutes
Total time:
	user time   =     894.55 seconds =      14.91 minutes
	system time =       6.45 seconds =       0.11 minutes
	total time  =        901 seconds =      15.02 minutes

			-----------------------------------------
			 OPTKING 2.0: for geometry optimizations 
			  - R.A. King,  Bethel University        
			-----------------------------------------

	Previous internal coordinate definitions found.
	---Fragment 1 Geometry and Gradient---
	 H          -4.4087671669        0.1126167367        0.6005363852
	 H          -4.1373485248        3.2113224126       -0.5801005159
	 H          -3.5719437961        0.6152944456       -2.5816117786
	 C          -3.3650914024        1.3203006229       -0.6751884987
	 H           0.4684830628        2.5478508030       -1.2203142854
	 H          -0.3680992216        2.0466962078        1.9704329724
	 C          -0.5630760389        1.3344838586        0.0629619959
	 H          -0.4862464994       -2.5415401245        1.2123718341
	 H           0.3509290834       -2.0384122068       -1.9729188148
	 C           0.5516265622       -1.3306704897       -0.0659447782
	 H           3.6359701489       -2.2360182950        2.4860952989
	 H           4.0560424351        0.5973981167        0.8085569759
	 H           4.4859059041       -2.3173434554       -0.7193416317
	 C           3.3744475067       -1.3239346528        0.6778599941
	             0.0036622806        0.0023431684       -0.0014746681
	             0.0034901158       -0.0024845012        0.0005046697
	             0.0022489108        0.0016246691        0.0037401700
	            -0.0142285562       -0.0038814511       -0.0045822511
	            -0.0036779406       -0.0039203155        0.0005419986
	            -0.0026882727       -0.0035650214       -0.0034650900
	             0.0141829804        0.0163947976        0.0057650329
	             0.0040865275        0.0042864224        0.0003355639
	             0.0032907709        0.0029469584        0.0032906313
	            -0.0123281963       -0.0161908786       -0.0052977734
	            -0.0030459613        0.0004879006       -0.0035343008
	            -0.0033001031       -0.0031448385       -0.0003192792
	            -0.0041358658        0.0016413856        0.0005889081
	             0.0124433098        0.0034617042        0.0039063881

	---Fragment 1 Intrafragment Coordinates---
	 - Coordinate -           - BOHR/RAD -       - ANG/DEG -
	 R(1,4)           =         2.043339	       1.081288
	 R(2,4)           =         2.044844	       1.082085
	 R(3,4)           =         2.043103	       1.081164
	 R(4,7)           =         2.897647	       1.533369
	 R(5,7)           =         2.045280	       1.082316
	 R(6,7)           =         2.045411	       1.082385
	 R(7,10)          =         2.891751	       1.530249
	 R(8,10)          =         2.043888	       1.081579
	 R(9,10)          =         2.043949	       1.081611
	 R(10,14)         =         2.919180	       1.544763
	 R(11,14)         =         2.042059	       1.080611
	 R(12,14)         =         2.042835	       1.081021
	 R(13,14)         =         2.043128	       1.081177
	 B(1,4,2)         =         1.901432	     108.944031
	 B(1,4,3)         =         1.903826	     109.081214
	 B(1,4,7)         =         1.915335	     109.740593
	 B(2,4,3)         =         1.901029	     108.920958
	 B(2,4,7)         =         1.927113	     110.415423
	 B(3,4,7)         =         1.914835	     109.711940
	 B(4,7,5)         =         1.907933	     109.316486
	 B(4,7,6)         =         1.908630	     109.356458
	 B(4,7,10)        =         1.935730	     110.909186
	 B(5,7,6)         =         1.907599	     109.297391
	 B(5,7,10)        =         1.901149	     108.927799
	 B(6,7,10)        =         1.902592	     109.010482
	 B(7,10,8)        =         1.899048	     108.807439
	 B(7,10,9)        =         1.899555	     108.836495
	 B(7,10,14)       =         1.938279	     111.055223
	 B(8,10,9)        =         1.905535	     109.179098
	 B(8,10,14)       =         1.910321	     109.453321
	 B(9,10,14)       =         1.910781	     109.479694
	 B(10,14,11)      =         1.926696	     110.391552
	 B(10,14,12)      =         1.918894	     109.944512
	 B(10,14,13)      =         1.929087	     110.528557
	 B(11,14,12)      =         1.897266	     108.705324
	 B(11,14,13)      =         1.895166	     108.585039
	 B(12,14,13)      =         1.896047	     108.635501
	 D(1,4,7,5)       =        -3.140638	    -179.945286
	 D(1,4,7,6)       =        -1.052809	     -60.321519
	 D(1,4,7,10)      =         1.045990	      59.930824
	 D(2,4,7,5)       =        -1.044398	     -59.839587
	 D(2,4,7,6)       =         1.043431	      59.784181
	 D(2,4,7,10)      =        -3.140955	    -179.963476
	 D(3,4,7,5)       =         1.051024	      60.219248
	 D(3,4,7,6)       =         3.138853	     179.843015
	 D(3,4,7,10)      =        -1.045533	     -59.904641
	 D(4,7,10,8)      =        -1.037334	     -59.434864
	 D(4,7,10,9)      =         1.037395	      59.438360
	 D(4,7,10,14)     =        -3.141112	    -179.972487
	 D(5,7,10,8)      =        -3.137926	    -179.789934
	 D(5,7,10,9)      =        -1.063197	     -60.916710
	 D(5,7,10,14)     =         1.041481	      59.672444
	 D(6,7,10,8)      =         1.065052	      61.023013
	 D(6,7,10,9)      =         3.139782	     179.896237
	 D(6,7,10,14)     =        -1.038726	     -59.514610
	 D(7,10,14,11)    =         1.916434	     109.803561
	 D(7,10,14,12)    =        -0.176648	     -10.121201
	 D(7,10,14,13)    =        -2.269732	    -130.046087
	 D(8,10,14,11)    =        -0.180665	     -10.351370
	 D(8,10,14,12)    =        -2.273747	    -130.276132
	 D(8,10,14,13)    =         1.916354	     109.798982
	 D(9,10,14,11)    =        -2.268722	    -129.988183
	 D(9,10,14,12)    =         1.921382	     110.087055
	 D(9,10,14,13)    =        -0.171703	      -9.837831

	Current energy   :      -158.1556034177

	Energy change for the previous step:
		Projected    :        -0.0044604199
		Actual       :        -0.0031158456

	Performing BFGS update.
	Previous computed or guess Hessian on step 1.
	Steps to be used in Hessian update: 1
	Adding user-defined constraint: Fragment 1; Coordinate 58:
		Value =    -2.269732; Fixed value    =    -2.268930
		Force =     0.000421; Force constant =     0.525000
	Removing off-diagonal coupling between coordinate 58 and others.
	Taking RFO optimization step.
	Going to follow RFO solution 1.
	Using RFO vector 1.

	Determining step-restricting scale parameter for RS-RFO.
	Maximum step size allowed    0.10000

	 Iter      |step|        alpha        rfo_root  
	------------------------------------------------
	    0     0.16423       1.00000           1
	    1     0.13251       7.27760           1
	    2     0.11017      17.61854           1
	    3     0.10148      24.27561           1
	    4     0.10004      25.59664           1
	    5     0.10000      25.63357           1
	------------------------------------------------
	Norm of target step-size    0.10000
	Projected energy change by RFO approximation:        -0.0019727645

	Back-transformation to cartesian coordinates...
	Successfully converged to displaced geometry.

	--- Internal Coordinate Step in ANG or DEG, aJ/ANG or AJ/DEG ---
	 ---------------------------------------------------------------------------
	   Coordinate                Previous        Force       Change         New 
	   ----------                --------       ------       ------       ------
	    1 R(1,4)          =      1.081288     0.034406     0.006240     1.087529
	    2 R(2,4)          =      1.082085     0.029595     0.005107     1.087192
	    3 R(3,4)          =      1.081164     0.035247     0.006389     1.087553
	    4 R(4,7)          =      1.533369    -0.042358    -0.011190     1.522179
	    5 R(5,7)          =      1.082316     0.037246     0.006836     1.089152
	    6 R(6,7)          =      1.082385     0.038961     0.007124     1.089509
	    7 R(7,10)         =      1.530249    -0.040326    -0.009784     1.520465
	    8 R(8,10)         =      1.081579     0.036289     0.006624     1.088203
	    9 R(9,10)         =      1.081611     0.036363     0.006630     1.088241
	   10 R(10,14)        =      1.544763    -0.017019    -0.006516     1.538247
	   11 R(11,14)        =      1.080611     0.030793     0.005460     1.086071
	   12 R(12,14)        =      1.081021     0.033608     0.006248     1.087269
	   13 R(13,14)        =      1.081177     0.028429     0.005020     1.086197
	   14 B(1,4,2)        =    108.944031    -0.000160    -0.667256   108.276774
	   15 B(1,4,3)        =    109.081214    -0.000156    -0.804600   108.276614
	   16 B(1,4,7)        =    109.740593     0.000131     0.618002   110.358595
	   17 B(2,4,3)        =    108.920958    -0.000155    -0.646070   108.274889
	   18 B(2,4,7)        =    110.415423     0.000211     0.850646   111.266070
	   19 B(3,4,7)        =    109.711940     0.000121     0.585755   110.297695
	   20 B(4,7,5)        =    109.316486    -0.000016     0.193579   109.510065
	   21 B(4,7,6)        =    109.356458    -0.000028     0.135954   109.492411
	   22 B(4,7,10)       =    110.909186     0.000284     1.076397   111.985583
	   23 B(5,7,6)        =    109.297391    -0.000077    -1.100301   108.197090
	   24 B(5,7,10)       =    108.927799    -0.000091    -0.217076   108.710723
	   25 B(6,7,10)       =    109.010482    -0.000077    -0.146058   108.864424
	   26 B(7,10,8)       =    108.807439    -0.000106    -0.222033   108.585406
	   27 B(7,10,9)       =    108.836495    -0.000109    -0.320343   108.516152
	   28 B(7,10,14)      =    111.055223     0.000303     1.129946   112.185170
	   29 B(8,10,9)       =    109.179098    -0.000094    -1.202606   107.976493
	   30 B(8,10,14)      =    109.453321    -0.000005     0.262065   109.715385
	   31 B(9,10,14)      =    109.479694     0.000004     0.278955   109.758649
	   32 B(10,14,11)     =    110.391552     0.000219     0.926730   111.318282
	   33 B(10,14,12)     =    109.944512     0.000116     0.408334   110.352846
	   34 B(10,14,13)     =    110.528557     0.000234     0.935718   111.464275
	   35 B(11,14,12)     =    108.705324    -0.000189    -0.824492   107.880832
	   36 B(11,14,13)     =    108.585039    -0.000204    -0.683939   107.901100
	   37 B(12,14,13)     =    108.635501    -0.000192    -0.863231   107.772270
	   38 D(1,4,7,5)      =   -179.945286     0.000010     0.452232  -179.493055
	   39 D(1,4,7,6)      =    -60.321519    -0.000018    -0.690363   -61.011882
	   40 D(1,4,7,10)     =     59.930824    -0.000003    -0.092437    59.838387
	   41 D(2,4,7,5)      =    -59.839587     0.000014     0.569566   -59.270021
	   42 D(2,4,7,6)      =     59.784181    -0.000014    -0.573029    59.211152
	   43 D(2,4,7,10)     =   -179.963476     0.000001     0.024897  -179.938579
	   44 D(3,4,7,5)      =     60.219248     0.000018     0.690839    60.910086
	   45 D(3,4,7,6)      =    179.843015    -0.000010    -0.451756   179.391259
[...]
	 Same-Spin Energy          =      -0.1654559299995442 [Eh]
	 Opposite-Spin Energy      =      -0.6398492541002689 [Eh]
	 Correlation Energy        =      -0.8053051840998131 [Eh]
	 Total Energy              =    -158.1569838924236819 [Eh]
	-----------------------------------------------------------
	 ================> DF-SCS-MP2 Energies <================== 
	-----------------------------------------------------------
	 SCS Same-Spin Scale       =       0.3333333333333333 [-]
	 SCS Opposite-Spin Scale   =       1.2000000000000000 [-]
	 SCS Same-Spin Energy      =      -0.0551519766665147 [Eh]
	 SCS Opposite-Spin Energy  =      -0.7678191049203227 [Eh]
	 SCS Correlation Energy    =      -0.8229710815868374 [Eh]
	 SCS Total Energy          =    -158.1746497899107169 [Eh]
	-----------------------------------------------------------


  -Total Gradient:
     Atom            X                  Y                   Z
    ------   -----------------  -----------------  -----------------
       1        0.000014356813     0.000017396905    -0.000023622111
       2        0.000014810780    -0.000038177253     0.000001706950
       3        0.000010410635     0.000010975813     0.000038200462
       4       -0.000049198211     0.000011493493     0.000016432303
       5       -0.000010892145     0.000000032427     0.000007463045
       6        0.000028517688     0.000020341948    -0.000033528908
       7        0.000369124164     0.000204101672    -0.001438604182
       8       -0.000022280027    -0.000017892856    -0.000072468351
       9        0.000010141708     0.000010205039    -0.000004593090
      10       -0.000403520577     0.000170407878     0.001780486597
      11        0.000001447587     0.000047775647    -0.000028940613
      12        0.000008582474    -0.000032803403    -0.000014335911
      13        0.000281114995     0.001798972888    -0.001011568265
      14       -0.000252615885    -0.002202830197     0.000783372071


*** tstop() called on gpu-1-16.local at Wed Jun 14 15:33:54 2017
Module time:
	user time   =     281.85 seconds =       4.70 minutes
	system time =       2.74 seconds =       0.05 minutes
	total time  =        285 seconds =       4.75 minutes
Total time:
	user time   =    2400.43 seconds =      40.01 minutes
	system time =      20.80 seconds =       0.35 minutes
	total time  =       2424 seconds =      40.40 minutes

			-----------------------------------------
			 OPTKING 2.0: for geometry optimizations 
			  - R.A. King,  Bethel University        
			-----------------------------------------

	Previous internal coordinate definitions found.
	---Fragment 1 Geometry and Gradient---
	 H          -4.4419005185        0.1280621216        0.6206521793
	 H          -4.1600670394        3.2120733672       -0.5933099497
	 H          -3.6291493452        0.5879686989       -2.5672749136
	 C          -3.3629507684        1.3193064469       -0.6630043213
	 H           0.4619132508        2.5563295112       -1.2256521090
	 H          -0.3442055574        2.0804377715        1.9419077063
	 C          -0.5856513920        1.3138648583        0.0425886615
	 H          -0.5060162456       -2.5742920468        1.1398114914
	 H           0.3619963553       -2.0236234921       -1.9870810204
	 C           0.5773064990       -1.3053921726       -0.0678887965
	 H           3.6595914365       -2.1986380682        2.5277423268
	 H           4.0979033652        0.5905208529        0.7998059660
	 H           4.5292746821       -2.3254207527       -0.6808218089
	 C           3.3688314970       -1.3305857543        0.6903385943
	             0.0000143568        0.0000173969       -0.0000236221
	             0.0000148108       -0.0000381773        0.0000017069
	             0.0000104106        0.0000109758        0.0000382005
	            -0.0000491982        0.0000114935        0.0000164323
	            -0.0000108921        0.0000000324        0.0000074630
	             0.0000285177        0.0000203419       -0.0000335289
	             0.0003691242        0.0002041017       -0.0014386042
	            -0.0000222800       -0.0000178929       -0.0000724684
	             0.0000101417        0.0000102050       -0.0000045931
	            -0.0004035206        0.0001704079        0.0017804866
	             0.0000014476        0.0000477756       -0.0000289406
	             0.0000085825       -0.0000328034       -0.0000143359
	             0.0002811150        0.0017989729       -0.0010115683
	            -0.0002526159       -0.0022028302        0.0007833721

	---Fragment 1 Intrafragment Coordinates---
	 - Coordinate -           - BOHR/RAD -       - ANG/DEG -
	 R(1,4)           =         2.056932	       1.088482
	 R(2,4)           =         2.054950	       1.087433
	 R(3,4)           =         2.057174	       1.088609
	 R(4,7)           =         2.865534	       1.516375
	 R(5,7)           =         2.061442	       1.090868
	 R(6,7)           =         2.062363	       1.091356
	 R(7,10)          =         2.867958	       1.517658
	 R(8,10)          =         2.059669	       1.089930
	 R(9,10)          =         2.060464	       1.090351
	 R(10,14)         =         2.892776	       1.530791
	 R(11,14)         =         2.052829	       1.086311
	 R(12,14)         =         2.057712	       1.088894
	 R(13,14)         =         2.053389	       1.086607
	 B(1,4,2)         =         1.884720	     107.986523
	 B(1,4,3)         =         1.879597	     107.692991
	 B(1,4,7)         =         1.932241	     110.709258
	 B(2,4,3)         =         1.884568	     107.977810
	 B(2,4,7)         =         1.949111	     111.675815
	 B(3,4,7)         =         1.931223	     110.650910
	 B(4,7,5)         =         1.917597	     109.870199
	 B(4,7,6)         =         1.917213	     109.848215
	 B(4,7,10)        =         1.966290	     112.660091
	 B(5,7,6)         =         1.857782	     106.443066
	 B(5,7,10)        =         1.897252	     108.704531
	 B(6,7,10)        =         1.904418	     109.115099
	 B(7,10,8)        =         1.903689	     109.073336
	 B(7,10,9)        =         1.887943	     108.171165
	 B(7,10,14)       =         1.970520	     112.902508
	 B(8,10,9)        =         1.850889	     106.048107
	 B(8,10,14)       =         1.926771	     110.395841
	 B(9,10,14)       =         1.919779	     109.995239
	 B(10,14,11)      =         1.955159	     112.022352
	 B(10,14,12)      =         1.925938	     110.348131
	 B(10,14,13)      =         1.954706	     111.996432
	 B(11,14,12)      =         1.872329	     107.276555
	 B(11,14,13)      =         1.888902	     108.226101
	 B(12,14,13)      =         1.862527	     106.714941
	 D(1,4,7,5)       =        -3.113630	    -178.397838
	 D(1,4,7,6)       =        -1.075566	     -61.625385
	 D(1,4,7,10)      =         1.051444	      60.243305
	 D(2,4,7,5)       =        -1.012867	     -58.033012
	 D(2,4,7,6)       =         1.025197	      58.739441
	 D(2,4,7,10)      =        -3.130979	    -179.391869
	 D(3,4,7,5)       =         1.087009	      62.281008
	 D(3,4,7,6)       =         3.125072	     179.053461
	 D(3,4,7,10)      =        -1.031103	     -59.077850
	 D(4,7,10,8)      =        -0.974032	     -55.807940
	 D(4,7,10,9)      =         1.031689	      59.111449
	 D(4,7,10,14)     =        -3.122861	    -178.926759
	 D(5,7,10,8)      =        -3.103677	    -177.827573
	 D(5,7,10,9)      =        -1.097955	     -62.908184
	 D(5,7,10,14)     =         1.030680	      59.053608
	 D(6,7,10,8)      =         1.160200	      66.474577
	 D(6,7,10,9)      =        -3.117263	    -178.606034
	 D(6,7,10,14)     =        -0.988629	     -56.644242
	 D(7,10,14,11)    =         1.884133	     107.952851
	 D(7,10,14,12)    =        -0.200691	     -11.498752
	 D(7,10,14,13)    =        -2.272881	    -130.226474
	 D(8,10,14,11)    =        -0.251823	     -14.428368
	 D(8,10,14,12)    =        -2.336646	    -133.879970
	 D(8,10,14,13)    =         1.874349	     107.392308
	 D(9,10,14,11)    =        -2.288430	    -131.117377
	 D(9,10,14,12)    =         1.909932	     109.431021
	 D(9,10,14,13)    =        -0.162258	      -9.296701

	Current energy   :      -158.1569838924

	Energy change for the previous step:
		Projected    :         0.0000031373
		Actual       :        -0.0000001033

	Performing BFGS update.
	Previous computed or guess Hessian on step 1.
	Steps to be used in Hessian update: 6 5
	Adding user-defined constraint: Fragment 1; Coordinate 58:
		Value =    -2.272881; Fixed value    =    -2.268930
		Force =     0.002568; Force constant =     0.650000
	Removing off-diagonal coupling between coordinate 58 and others.
	Taking RFO optimization step.
	Going to follow RFO solution 1.
	Rejecting RFO root 1 because normalization gives large value.
	Rejecting RFO root 2 because normalization gives large value.
	Using RFO vector 3.

	Determining step-restricting scale parameter for RS-RFO.
	Maximum step size allowed    0.10000

	 Iter      |step|        alpha        rfo_root  
	------------------------------------------------
	    0   258.37892       1.00000           3
	    1   129.21531       1.99963           3
	    2    64.63351       3.99776           3
	    3    32.34262       7.98954           3
	    4    16.19719      15.95521           3
	    5     8.12452      31.81523           3
	    6     4.08825      63.25198           3
	    7     2.07026     125.00794           3
	    8     1.06155     244.17217           3
	    9     0.55777     466.04721           3
	   10     0.30702     850.85053           3
	   11     0.18391    1430.84004           3
	   12     0.12661    2095.48000           3
	   13     0.10472    2547.32758           3
	   14     0.10021    2665.65976           3
	   15     0.10000    2671.40642           3
	------------------------------------------------
	Norm of target step-size    0.10000
	Projected energy change by RFO approximation:         0.0001279568

	Back-transformation to cartesian coordinates...
	Successfully converged to displaced geometry.

	--- Internal Coordinate Step in ANG or DEG, aJ/ANG or AJ/DEG ---
	 ---------------------------------------------------------------------------
	   Coordinate                Previous        Force       Change         New 
	   ----------                --------       ------       ------       ------
	    1 R(1,4)          =      1.088482     0.000267    -0.001706     1.086776
	    2 R(2,4)          =      1.087433     0.000337    -0.000989     1.086443
	    3 R(3,4)          =      1.088609     0.000335    -0.001390     1.087220
	    4 R(4,7)          =      1.516375    -0.000010     0.003270     1.519645
	    5 R(5,7)          =      1.090868     0.000083    -0.001127     1.089742
	    6 R(6,7)          =      1.091356     0.000165    -0.001268     1.090087
	    7 R(7,10)         =      1.517658     0.000013     0.001754     1.519412
	    8 R(8,10)         =      1.089930     0.000163    -0.001272     1.088658
	    9 R(9,10)         =      1.090351     0.000003    -0.001049     1.089302
	   10 R(10,14)        =      1.530791     0.000252     0.002332     1.533123
	   11 R(11,14)        =      1.086311     0.000378    -0.001571     1.084740
	   12 R(12,14)        =      1.088894     0.000234    -0.000872     1.088022
	   13 R(13,14)        =      1.086607     0.000307    -0.001067     1.085540
	   14 B(1,4,2)        =    107.986523     0.000000     0.138732   108.125255
	   15 B(1,4,3)        =    107.692991     0.000000     0.154449   107.847439
	   16 B(1,4,7)        =    110.709258    -0.000000    -0.307251   110.402008
	   17 B(2,4,3)        =    107.977810    -0.000000     0.016816   107.994626
	   18 B(2,4,7)        =    111.675815    -0.000000     0.044627   111.720443
	   19 B(3,4,7)        =    110.650910     0.000001    -0.032217   110.618693
	   20 B(4,7,5)        =    109.870199    -0.000001    -0.198662   109.671538
	   21 B(4,7,6)        =    109.848215     0.000000     0.159251   110.007466
	   22 B(4,7,10)       =    112.660091    -0.000000     0.078651   112.738742
	   23 B(5,7,6)        =    106.443066     0.000001     0.150384   106.593451
	   24 B(5,7,10)       =    108.704531    -0.000000    -0.144141   108.560391
	   25 B(6,7,10)       =    109.115099    -0.000000    -0.043848   109.071251
	   26 B(7,10,8)       =    109.073336     0.000001     0.475838   109.549175
	   27 B(7,10,9)       =    108.171165    -0.000001    -0.446671   107.724494
	   28 B(7,10,14)      =    112.902508    -0.000001    -0.073441   112.829066
	   29 B(8,10,9)       =    106.048107     0.000001     0.106530   106.154637
	   30 B(8,10,14)      =    110.395841    -0.000001    -0.474761   109.921080
	   31 B(9,10,14)      =    109.995239     0.000000     0.428464   110.423703
	   32 B(10,14,11)     =    112.022352    -0.000001    -0.874075   111.148277
	   33 B(10,14,12)     =    110.348131    -0.000002     0.375127   110.723257
	   34 B(10,14,13)     =    111.996432    -0.000000     0.054223   112.050654
	   35 B(11,14,12)     =    107.276555     0.000001     0.260503   107.537058
	   36 B(11,14,13)     =    108.226101     0.000001    -0.126134   108.099967
	   37 B(12,14,13)     =    106.714941     0.000000     0.362034   107.076975
	   38 D(1,4,7,5)      =   -178.397838    -0.000000     0.076152  -178.321686
	   39 D(1,4,7,6)      =    -61.625385     0.000000     0.235325   -61.390059
	   40 D(1,4,7,10)     =     60.243305     0.000000     0.347587    60.590892
	   41 D(2,4,7,5)      =    -58.033012    -0.000000     0.072473   -57.960539
	   42 D(2,4,7,6)      =     58.739441     0.000000     0.231646    58.971087
	   43 D(2,4,7,10)     =   -179.391869     0.000000     0.343908  -179.047962
	   44 D(3,4,7,5)      =     62.281008    -0.000000     0.101692    62.382700
	   45 D(3,4,7,6)      =    179.053461     0.000000     0.260866   179.314327
	   46 D(3,4,7,10)     =    -59.077850     0.000000     0.373127   -58.704722
	   47 D(4,7,10,8)     =    -55.807940    -0.000001    -1.991174   -57.799114
	   48 D(4,7,10,9)     =     59.111449    -0.000000    -1.857757    57.253692
	   49 D(4,7,10,14)    =   -178.926759    -0.000000    -1.676855  -180.603614
	   50 D(5,7,10,8)     =   -177.827573    -0.000000    -1.689827  -179.517400
	   51 D(5,7,10,9)     =    -62.908184     0.000000    -1.556410   -64.464594
	   52 D(5,7,10,14)    =     59.053608    -0.000000    -1.375508    57.678100
	   53 D(6,7,10,8)     =     66.474577    -0.000001    -1.766023    64.708553
	   54 D(6,7,10,9)     =   -178.606034    -0.000000    -1.632607  -180.238640
	   55 D(6,7,10,14)    =    -56.644242    -0.000000    -1.451704   -58.095946
	   56 D(7,10,14,11)   =    107.952851     0.000000     1.012793   108.965644
	   57 D(7,10,14,12)   =    -11.498752     0.000000     1.006477   -10.492275
	   58 D(7,10,14,13)   =   -130.226474     0.000001     0.262471  -129.964003
	   59 D(8,10,14,11)   =    -14.428368     0.000000     0.797329   -13.631039
	   60 D(8,10,14,12)   =   -133.879970     0.000000     0.791013  -133.088957
	   61 D(8,10,14,13)   =    107.392308     0.000001     0.047007   107.439314
	   62 D(9,10,14,11)   =   -131.117377     0.000000     0.695144  -130.422233
	   63 D(9,10,14,12)   =    109.431021     0.000000     0.688828   110.119849
	   64 D(9,10,14,13)   =     -9.296701     0.000000    -0.055178    -9.351879
	 ---------------------------------------------------------------------------
	Successfully symmetrized geometry.
	 Forces used to impose fixed constraints are not included.
	  Forces zeroed: 58 

  ==> Convergence Check <==

  Measures of convergence in internal coordinates in au.
  Criteria marked as inactive (o), active & met (*), and active & unmet ( ).
  ---------------------------------------------------------------------------------------------
   Step     Total Energy     Delta E     MAX Force     RMS Force      MAX Disp      RMS Disp   
  ---------------------------------------------------------------------------------------------
    Convergence Criteria    1.00e-06 *    3.00e-04 *             o    1.20e-03 *             o
  ---------------------------------------------------------------------------------------------
      7    -158.15698389   -1.03e-07 *    4.59e-05 *    1.78e-05 o    3.48e-02      1.25e-02 o  ~
  ---------------------------------------------------------------------------------------------


  **** Optimization is complete! (in 7 steps) ****

  ==> Optimization Summary <==

  Measures of convergence in internal coordinates in au.
  --------------------------------------------------------------------------------------------------------------- ~
   Step         Total Energy             Delta E       MAX Force       RMS Force        MAX Disp        RMS Disp  ~
  --------------------------------------------------------------------------------------------------------------- ~
      1    -158.152487572143   -158.152487572143      0.01309710      0.00570944      0.02706633      0.01251050  ~
      2    -158.155603417696     -0.003115845553      0.00514128      0.00238904      0.02983557      0.01252785  ~
      3    -158.156698975480     -0.001095557784      0.00174014      0.00070153      0.04158564      0.01251694  ~
      4    -158.156964065852     -0.000265090372      0.00101756      0.00019464      0.01701678      0.00538980  ~
      5    -158.156981669807     -0.000017603955      0.00010898      0.00003465      0.00388285      0.00129870  ~
      6    -158.156983789118     -0.000002119311      0.00003879      0.00001128      0.00695136      0.00253770  ~
      7    -158.156983892424     -0.000000103305      0.00004590      0.00001850      0.03475254      0.01250223  ~
  --------------------------------------------------------------------------------------------------------------- ~

	Writing optimization data to binary file.
	Final energy is   -158.1569838924237
	Final (previous) structure:
	Cartesian Geometry (in Angstrom)
	    H    -2.3505525172   0.0677675560   0.3284349877
	    H    -2.2014126635   1.6997560182  -0.3139661030
	    H    -1.9204631201   0.3111396348  -1.3585433725
	    C    -1.7795969003   0.6981469029  -0.3508467760
	    H     0.2444339647   1.3527513150  -0.6485871617
	    H    -0.1821457361   1.1009202526   1.0276132994
	    C    -0.3099133688   0.6952673382   0.0225369490
	    H    -0.2677722643  -1.3622566794   0.6031622633
	    H     0.1915602208  -1.0708554308  -1.0515179876
	    C     0.3054974416  -0.6907837860  -0.0359252038
	    H     1.9365723809  -1.1634691556   1.3376236285
	    H     2.1685170638   0.3124901766   0.4232390885
	    H     2.3967889332  -1.2305596627  -0.3602753844
	    C     1.7827088478  -0.7041156552   0.3653114503
	Saving final (previous) structure.
			--------------------------
			 OPTKING Finished Execution 
			--------------------------

    Final optimized geometry and variables:
    Molecular point group: c1
    Full point group: C1

    Geometry (in Angstrom), charge = 0, multiplicity = 1:

    H           -2.350552517239     0.067767556041     0.328434987731
    H           -2.201412663452     1.699756018246    -0.313966103022
    H           -1.920463120072     0.311139634799    -1.358543372485
    C           -1.779596900262     0.698146902866    -0.350846776037
    H            0.244433964693     1.352751314965    -0.648587161719
    H           -0.182145736065     1.100920252584     1.027613299357
    C           -0.309913368816     0.695267338190     0.022536949013
    H           -0.267772264335    -1.362256679405     0.603162263349
    H            0.191560220836    -1.070855430764    -1.051517987607
    C            0.305497441627    -0.690783786036    -0.035925203842
    H            1.936572380924    -1.163469155646     1.337623628545
    H            2.168517063842     0.312490176558     0.423239088506
    H            2.396788933211    -1.230559662725    -0.360275384359
    C            1.782708847797    -0.704115655246     0.365311450292

	Cleaning optimization helper files.

*** Psi4 exiting successfully. Buy a developer a beer!
