
    -----------------------------------------------------------------------
          Psi4: An Open-Source Ab Initio Electronic Structure Package
                               Psi4 1.1 release

                         Git: Rev {HEAD} add49b9 


    R. M. Parrish, L. A. Burns, D. G. A. Smith, A. C. Simmonett,
    A. E. DePrince III, E. G. Hohenstein, U. Bozkaya, A. Yu. Sokolov,
    R. Di Remigio, R. M. Richard, J. F. Gonthier, A. M. James,
    H. R. McAlexander, A. Kumar, M. Saitow, X. Wang, B. P. Pritchard,
    P. Verma, H. F. Schaefer III, K. Patkowski, R. A. King, E. F. Valeev,
    F. A. Evangelista, J. M. Turney, T. D. Crawford, and C. D. Sherrill,
    J. Chem. Theory Comput. in press (2017).
    (doi: 10.1021/acs.jctc.7b00174)

    -----------------------------------------------------------------------


    Psi4 started on: Wednesday, 14 June 2017 02:24PM

    Process ID:  27780
    PSIDATADIR: /cbio/jclab/home/chayas/anaconda/envs/py35/share/psi4
    Memory:     500.0 MiB
    Threads:    1
    
  ==> Input File <==

--------------------------------------------------------------------------

memory 1000 mb

molecule butane {
  symmetry C1
  0 1 
  H      3.862   1.567   -6.406
  H      2.678   2.667   -7.072
  H      2.300   0.969   -6.911
  C      3.075   1.674   -7.123
  H      2.843   1.522   -9.254
  H      4.406   2.122   -8.751
  C      3.631   1.416   -8.537
  H      3.665   -0.647   -7.940
  H      4.104   -0.384   -9.610
  C      4.203   -0.012   -8.612
  H      6.088   -0.983   -8.270
  H      5.791   0.381   -7.220
  H      6.230   0.644   -8.890
  C      5.691   0.009   -8.218
  units Angstrom
}

dih_string = "14 10 7 4 270"
set optking fixed_dihedral = $dih_string

optimize('MP2/aug-cc-pvtz')
--------------------------------------------------------------------------

  Memory set to 953.674 MiB by Python driver.
gradient() will perform analytic gradient computation.

*** tstart() called on gpu-1-17.local
*** at Wed Jun 14 14:24:09 2017

    SCF Algorithm Type (re)set to DF.

*** tstart() called on gpu-1-17.local
*** at Wed Jun 14 14:24:09 2017

   => Loading Basis Set <=

    Name: AUG-CC-PVTZ
    Role: ORBITAL
    Keyword: BASIS
    atoms 1-3, 5-6, 8-9, 11-13 entry H          line    34 file /cbio/jclab/home/chayas/anaconda/envs/py35/share/psi4/basis/aug-cc-pvtz.gbs 
    atoms 4, 7, 10, 14         entry C          line   221 file /cbio/jclab/home/chayas/anaconda/envs/py35/share/psi4/basis/aug-cc-pvtz.gbs 


         ---------------------------------------------------------
                                   SCF
            by Justin Turney, Rob Parrish, and Andy Simmonett
                              RHF Reference
                        1 Threads,    953 MiB Core
         ---------------------------------------------------------

  ==> Geometry <==

    Molecular point group: c1
    Full point group: C1

    Geometry (in Angstrom), charge = 0, multiplicity = 1:

       Center              X                  Y                   Z               Mass       
    ------------   -----------------  -----------------  -----------------  -----------------
           H         -0.296103795954     0.792811920061     1.700865053202     1.007825032070
           H         -1.480103795954     1.892811920061     1.034865053202     1.007825032070
           H         -1.858103795954     0.194811920061     1.195865053202     1.007825032070
           C         -1.083103795954     0.899811920061     0.983865053202    12.000000000000
           H         -1.315103795954     0.747811920061    -1.147134946798     1.007825032070
           H          0.247896204046     1.347811920061    -0.644134946798     1.007825032070
           C         -0.527103795954     0.641811920061    -0.430134946798    12.000000000000
           H         -0.493103795954    -1.421188079939     0.166865053202     1.007825032070
           H         -0.054103795954    -1.158188079939    -1.503134946798     1.007825032070
           C          0.044896204046    -0.786188079939    -0.505134946798    12.000000000000
           H          1.929896204046    -1.757188079939    -0.163134946798     1.007825032070
           H          1.632896204046    -0.393188079939     0.886865053202     1.007825032070
           H          2.071896204046    -0.130188079939    -0.783134946798     1.007825032070
           C          1.532896204046    -0.765188079939    -0.111134946798    12.000000000000

  Running in c1 symmetry.

  Rotational constants: A =      0.48453  B =      0.15010  C =      0.13796 [cm^-1]
  Rotational constants: A =  14525.72978  B =   4499.80395  C =   4135.79974 [MHz]
  Nuclear repulsion =  133.466145102174153

  Charge       = 0
  Multiplicity = 1
  Electrons    = 34
  Nalpha       = 17
  Nbeta        = 17

  ==> Algorithm <==

  SCF Algorithm Type is DF.
  DIIS enabled.
  MOM disabled.
  Fractional occupation disabled.
  Guess Type is SAD.
  Energy threshold   = 1.00e-10
  Density threshold  = 1.00e-10
  Integral threshold = 0.00e+00

  ==> Primary Basis <==

  Basis Set: AUG-CC-PVTZ
    Blend: AUG-CC-PVTZ
    Number of shells: 146
    Number of basis function: 414
    Number of Cartesian functions: 470
    Spherical Harmonics?: true
    Max angular momentum: 3

   => Loading Basis Set <=

    Name: (AUG-CC-PVTZ AUX)
    Role: JKFIT
    Keyword: DF_BASIS_SCF
    atoms 1-3, 5-6, 8-9, 11-13 entry H          line    69 file /cbio/jclab/home/chayas/anaconda/envs/py35/share/psi4/basis/aug-cc-pvtz-jkfit.gbs 
    atoms 4, 7, 10, 14         entry C          line   161 file /cbio/jclab/home/chayas/anaconda/envs/py35/share/psi4/basis/aug-cc-pvtz-jkfit.gbs 

  ==> Pre-Iterations <==

   -------------------------------------------------------
    Irrep   Nso     Nmo     Nalpha   Nbeta   Ndocc  Nsocc
   -------------------------------------------------------
     A        414     414       0       0       0       0
   -------------------------------------------------------
    Total     414     414      17      17      17       0
   -------------------------------------------------------

  ==> Integral Setup <==

  ==> DFJK: Density-Fitted J/K Matrices <==

    J tasked:                  Yes
    K tasked:                  Yes
    wK tasked:                  No
    OpenMP threads:              1
    Integrals threads:           1
    Memory (MB):               715
    Algorithm:                Core
    Integral Cache:           NONE
    Schwarz Cutoff:          1E-12
    Fitting Condition:       1E-12

   => Auxiliary Basis Set <=

  Basis Set: (AUG-CC-PVTZ AUX)
    Blend: AUG-CC-PVTZ-JKFIT
    Number of shells: 260
    Number of basis function: 876
    Number of Cartesian functions: 1074
    Spherical Harmonics?: true
    Max angular momentum: 4

  Minimum eigenvalue in the overlap matrix is 6.8230895084E-06.
  Using Symmetric Orthogonalization.

  SCF Guess: Superposition of Atomic Densities via on-the-fly atomic UHF.

  ==> Iterations <==

                           Total Energy        Delta E     RMS |[F,P]|

   @DF-RHF iter   0:  -158.98225099013527   -1.58982e+02   9.48582e-03 
   @DF-RHF iter   1:  -157.23671766991740    1.74553e+00   9.36175e-04 
   @DF-RHF iter   2:  -157.33422414339560   -9.75065e-02   3.39084e-04 DIIS
   @DF-RHF iter   3:  -157.34682975992828   -1.26056e-02   1.25989e-04 DIIS
   @DF-RHF iter   4:  -157.34910507894764   -2.27532e-03   1.79441e-05 DIIS
   @DF-RHF iter   5:  -157.34916957839758   -6.44994e-05   4.94160e-06 DIIS
   @DF-RHF iter   6:  -157.34917353667643   -3.95828e-06   1.32622e-06 DIIS
   @DF-RHF iter   7:  -157.34917377261215   -2.35936e-07   2.43000e-07 DIIS
   @DF-RHF iter   8:  -157.34917378467375   -1.20616e-08   5.47114e-08 DIIS
   @DF-RHF iter   9:  -157.34917378524648   -5.72726e-10   1.80537e-08 DIIS
   @DF-RHF iter  10:  -157.34917378531017   -6.36931e-11   5.21667e-09 DIIS
   @DF-RHF iter  11:  -157.34917378531560   -5.42855e-12   1.32705e-09 DIIS
   @DF-RHF iter  12:  -157.34917378531492    6.82121e-13   2.76980e-10 DIIS
   @DF-RHF iter  13:  -157.34917378531469    2.27374e-13   5.27965e-11 DIIS

  ==> Post-Iterations <==

    Orbital Energies (a.u.)
    -----------------------

    Doubly Occupied:                                                      

       1A    -11.206118     2A    -11.205481     3A    -11.199819  
       4A    -11.199675     5A     -1.072180     6A     -0.977763  
       7A     -0.869905     8A     -0.788989     9A     -0.631373  
      10A     -0.620172    11A     -0.581245    12A     -0.543365  
      13A     -0.524796    14A     -0.507481    15A     -0.473624  
      16A     -0.458304    17A     -0.446885  

    Virtual:                                                              

      18A      0.032090    19A      0.037758    20A      0.039776  
      21A      0.041161    22A      0.057278    23A      0.058718  
      24A      0.059170    25A      0.061370    26A      0.081256  
      27A      0.082966    28A      0.100660    29A      0.120971  
      30A      0.122293    31A      0.126817    32A      0.129190  
      33A      0.132910    34A      0.139514    35A      0.144611  
      36A      0.156147    37A      0.156267    38A      0.161345  
      39A      0.165425    40A      0.176281    41A      0.191969  
      42A      0.209183    43A      0.214608    44A      0.242696  
      45A      0.247013    46A      0.250178    47A      0.254025  
      48A      0.274650    49A      0.274790    50A      0.298911  
      51A      0.302062    52A      0.308148    53A      0.311984  
      54A      0.323373    55A      0.330921    56A      0.334766  
      57A      0.347378    58A      0.359687    59A      0.360488  
      60A      0.363994    61A      0.364895    62A      0.372126  
      63A      0.385159    64A      0.387211    65A      0.390162  
      66A      0.397126    67A      0.404562    68A      0.407073  
      69A      0.419887    70A      0.425438    71A      0.427653  
      72A      0.437079    73A      0.441756    74A      0.447031  
      75A      0.451681    76A      0.455688    77A      0.469272  
      78A      0.476031    79A      0.479914    80A      0.486386  
      81A      0.487446    82A      0.489366    83A      0.500287  
      84A      0.505564    85A      0.520189    86A      0.525444  
      87A      0.526010    88A      0.537329    89A      0.537971  
      90A      0.544460    91A      0.565215    92A      0.572766  
      93A      0.580339    94A      0.590941    95A      0.595837  
      96A      0.597348    97A      0.606568    98A      0.611528  
      99A      0.622975   100A      0.631550   101A      0.635859  
     102A      0.647898   103A      0.660638   104A      0.672055  
     105A      0.682167   106A      0.731561   107A      0.747199  
     108A      0.783999   109A      0.799061   110A      0.815310  
     111A      0.827252   112A      0.829691   113A      0.833281  
     114A      0.848435   115A      0.849330   116A      0.854784  
     117A      0.856187   118A      0.867394   119A      0.879446  
     120A      0.884880   121A      0.891657   122A      0.900957  
     123A      0.911553   124A      0.918427   125A      0.920420  
     126A      0.925945   127A      0.934456   128A      0.944884  
     129A      0.946947   130A      0.970345   131A      0.973909  
     132A      0.982109   133A      0.988376   134A      0.998078  
     135A      1.009187   136A      1.020722   137A      1.032758  
     138A      1.045749   139A      1.052974   140A      1.060367  
     141A      1.081111   142A      1.092897   143A      1.105520  
     144A      1.109581   145A      1.127472   146A      1.133754  
     147A      1.135195   148A      1.143995   149A      1.149500  
     150A      1.162607   151A      1.172874   152A      1.179830  
     153A      1.188777   154A      1.195101   155A      1.201108  
     156A      1.221273   157A      1.230474   158A      1.242849  
     159A      1.250678   160A      1.251987   161A      1.271330  
     162A      1.281806   163A      1.290791   164A      1.302974  
     165A      1.310854   166A      1.318654   167A      1.340635  
     168A      1.352192   169A      1.367024   170A      1.380271  
     171A      1.381863   172A      1.395341   173A      1.420280  
     174A      1.426683   175A      1.428965   176A      1.442374  
     177A      1.474323   178A      1.475745   179A      1.479942  
     180A      1.517945   181A      1.521540   182A      1.534082  
     183A      1.544130   184A      1.576488   185A      1.580824  
     186A      1.587943   187A      1.602901   188A      1.604982  
     189A      1.629103   190A      1.632555   191A      1.668519  
     192A      1.678447   193A      1.685271   194A      1.687280  
     195A      1.695763   196A      1.710964   197A      1.715512  
     198A      1.726642   199A      1.744388   200A      1.754406  
     201A      1.759733   202A      1.762760   203A      1.770881  
     204A      1.789353   205A      1.798673   206A      1.809874  
     207A      1.816480   208A      1.828883   209A      1.838219  
     210A      1.851651   211A      1.861693   212A      1.876770  
     213A      1.878697   214A      1.904244   215A      1.930264  
     216A      1.960738   217A      1.962015   218A      1.975650  
     219A      1.987147   220A      2.012230   221A      2.028036  
     222A      2.030226   223A      2.056505   224A      2.062677  
     225A      2.077087   226A      2.079152   227A      2.093069  
     228A      2.112848   229A      2.116079   230A      2.129376  
     231A      2.195656   232A      2.202552   233A      2.216326  
     234A      2.217006   235A      2.231836   236A      2.252129  
     237A      2.274923   238A      2.276920   239A      2.295753  
     240A      2.302095   241A      2.329276   242A      2.335374  
     243A      2.362345   244A      2.366768   245A      2.380067  
     246A      2.427422   247A      2.434368   248A      2.448776  
     249A      2.459252   250A      2.492035   251A      2.496430  
     252A      2.544945   253A      2.557067   254A      2.578070  
     255A      2.588329   256A      2.639277   257A      2.785440  
     258A      2.834589   259A      2.996152   260A      3.040851  
     261A      3.222496   262A      3.260923   263A      3.294462  
     264A      3.366461   265A      3.385358   266A      3.419196  
     267A      3.456468   268A      3.501983   269A      3.510459  
     270A      3.520509   271A      3.523137   272A      3.537990  
     273A      3.561852   274A      3.581659   275A      3.600771  
     276A      3.617796   277A      3.628768   278A      3.684948  
     279A      3.693638   280A      3.701447   281A      3.705131  
     282A      3.711395   283A      3.715725   284A      3.755041  
     285A      3.763600   286A      3.799203   287A      3.804776  
     288A      3.808563   289A      3.816249   290A      3.832790  
     291A      3.838174   292A      3.845009   293A      3.858504  
     294A      3.883908   295A      3.941792   296A      3.964674  
     297A      3.974333   298A      3.974964   299A      3.993595  
     300A      3.999856   301A      4.005328   302A      4.025704  
     303A      4.032537   304A      4.036318   305A      4.064444  
     306A      4.084300   307A      4.091778   308A      4.097151  
     309A      4.119599   310A      4.172159   311A      4.191360  
     312A      4.200615   313A      4.219229   314A      4.236824  
     315A      4.245979   316A      4.269455   317A      4.277300  
     318A      4.288545   319A      4.326556   320A      4.330584  
     321A      4.354392   322A      4.359593   323A      4.388740  
     324A      4.425014   325A      4.434629   326A      4.447792  
     327A      4.493094   328A      4.534855   329A      4.596334  
     330A      4.598946   331A      4.635845   332A      4.640294  
     333A      4.685926   334A      4.697093   335A      4.722144  
     336A      4.744329   337A      4.751067   338A      4.800379  
     339A      4.817471   340A      4.825161   341A      4.832884  
     342A      4.869742   343A      4.886068   344A      4.894166  
     345A      4.901654   346A      4.935935   347A      4.944845  
     348A      4.969104   349A      4.969263   350A      5.014805  
     351A      5.021725   352A      5.029849   353A      5.049703  
     354A      5.101644   355A      5.132109   356A      5.160306  
     357A      5.173734   358A      5.209816   359A      5.212325  
     360A      5.244601   361A      5.258252   362A      5.283376  
     363A      5.287913   364A      5.307687   365A      5.309652  
     366A      5.340108   367A      5.379581   368A      5.408551  
     369A      5.427486   370A      5.459818   371A      5.467688  
     372A      5.494354   373A      5.497187   374A      5.534349  
     375A      5.570159   376A      5.611263   377A      5.625432  
     378A      5.639047   379A      5.681836   380A      5.691752  
     381A      5.720571   382A      5.756429   383A      5.786185  
     384A      5.813132   385A      5.852078   386A      5.859586  
     387A      5.881997   388A      5.937126   389A      5.944384  
     390A      6.075458   391A      6.108208   392A      6.143216  
     393A      6.180415   394A      6.184140   395A      6.248891  
     396A      6.288622   397A      6.306196   398A      6.328732  
     399A      6.332639   400A      6.378238   401A      6.409013  
     402A      6.472033   403A      6.591156   404A      6.602809  
     405A      6.779937   406A      6.788150   407A      6.818841  
     408A      6.870403   409A      6.937685   410A      6.975250  
     411A     18.116432   412A     18.378294   413A     18.754281  
     414A     19.256816  

    Final Occupation by Irrep:
              A 
    DOCC [    17 ]

  Energy converged.

  @DF-RHF Final Energy:  -157.34917378531469

   => Energetics <=

    Nuclear Repulsion Energy =            133.4661451021741527
    One-Electron Energy =                -475.0162858653089302
    Two-Electron Energy =                 184.2009669778200873
    DFT Exchange-Correlation Energy =       0.0000000000000000
    Empirical Dispersion Energy =           0.0000000000000000
    PCM Polarization Energy =               0.0000000000000000
    EFP Energy =                            0.0000000000000000
    Total Energy =                       -157.3491737853146901



Properties will be evaluated at   0.000000,   0.000000,   0.000000 Bohr

Properties computed using the SCF density matrix

  Nuclear Dipole Moment: (a.u.)
     X:     0.3618      Y:     0.1089      Z:     0.6981

  Electronic Dipole Moment: (a.u.)
     X:    -0.3816      Y:    -0.1156      Z:    -0.7361

  Dipole Moment: (a.u.)
     X:    -0.0198      Y:    -0.0067      Z:    -0.0380     Total:     0.0434

  Dipole Moment: (Debye)
     X:    -0.0503      Y:    -0.0171      Z:    -0.0967     Total:     0.1103


*** tstop() called on gpu-1-17.local at Wed Jun 14 14:25:32 2017
Module time:
	user time   =      83.16 seconds =       1.39 minutes
	system time =       0.56 seconds =       0.01 minutes
	total time  =         83 seconds =       1.38 minutes
Total time:
	user time   =      83.17 seconds =       1.39 minutes
	system time =       0.56 seconds =       0.01 minutes
	total time  =         83 seconds =       1.38 minutes

  //>>>>>>>>>>>>>>>>>>>>>>>>>>>>>>>>>>>//
  //               DFMP2               //
  //<<<<<<<<<<<<<<<<<<<<<<<<<<<<<<<<<<<//

   => Loading Basis Set <=

    Name: (AUG-CC-PVTZ AUX)
    Role: RIFIT
    Keyword: DF_BASIS_MP2
    atoms 1-3, 5-6, 8-9, 11-13 entry H          line    29 file /cbio/jclab/home/chayas/anaconda/envs/py35/share/psi4/basis/aug-cc-pvtz-ri.gbs 
    atoms 4, 7, 10, 14         entry C          line   147 file /cbio/jclab/home/chayas/anaconda/envs/py35/share/psi4/basis/aug-cc-pvtz-ri.gbs 

	 --------------------------------------------------------
	                          DF-MP2                         
	      2nd-Order Density-Fitted Moller-Plesset Theory     
	              RMP2 Wavefunction,   1 Threads             
	                                                         
	        Rob Parrish, Justin Turney, Andy Simmonett,      
	           Ed Hohenstein, and C. David Sherrill          
	 --------------------------------------------------------

   => Auxiliary Basis Set <=

  Basis Set: (AUG-CC-PVTZ AUX)
    Blend: AUG-CC-PVTZ-RI
    Number of shells: 252
    Number of basis function: 884
    Number of Cartesian functions: 1094
    Spherical Harmonics?: true
    Max angular momentum: 4

	 --------------------------------------------------------
	                 NBF =   414, NAUX =   884
	 --------------------------------------------------------
	   CLASS    FOCC     OCC    AOCC    AVIR     VIR    FVIR
	   PAIRS       0      17      17     397     397       0
	 --------------------------------------------------------


         ------------------------------------------------------------
                                     CPHF                           
                                  Rob Parrish                       
         ------------------------------------------------------------

  ==> Geometry <==

    Molecular point group: c1
    Full point group: C1

    Geometry (in Angstrom), charge = 0, multiplicity = 1:

       Center              X                  Y                   Z               Mass       
    ------------   -----------------  -----------------  -----------------  -----------------
           H         -0.296103795954     0.792811920061     1.700865053202     1.007825032070
           H         -1.480103795954     1.892811920061     1.034865053202     1.007825032070
           H         -1.858103795954     0.194811920061     1.195865053202     1.007825032070
           C         -1.083103795954     0.899811920061     0.983865053202    12.000000000000
           H         -1.315103795954     0.747811920061    -1.147134946798     1.007825032070
           H          0.247896204046     1.347811920061    -0.644134946798     1.007825032070
           C         -0.527103795954     0.641811920061    -0.430134946798    12.000000000000
           H         -0.493103795954    -1.421188079939     0.166865053202     1.007825032070
           H         -0.054103795954    -1.158188079939    -1.503134946798     1.007825032070
           C          0.044896204046    -0.786188079939    -0.505134946798    12.000000000000
           H          1.929896204046    -1.757188079939    -0.163134946798     1.007825032070
           H          1.632896204046    -0.393188079939     0.886865053202     1.007825032070
           H          2.071896204046    -0.130188079939    -0.783134946798     1.007825032070
           C          1.532896204046    -0.765188079939    -0.111134946798    12.000000000000

  Nuclear repulsion =  133.466145102174153
  Reference energy  = -157.349173785314690

  ==> Basis Set <==

  Basis Set: AUG-CC-PVTZ
    Blend: AUG-CC-PVTZ
    Number of shells: 146
    Number of basis function: 414
    Number of Cartesian functions: 470
    Spherical Harmonics?: true
    Max angular momentum: 3

  ==> CGRSolver (by Rob Parrish) <==

   Number of roots    =         1
   Preconditioning    =    JACOBI
   Convergence cutoff =     1E-06
   Maximum iterations =       100

  ==> CPHFRHamiltonian (by Rob Parrish) <== 

  ==> DFJK: Density-Fitted J/K Matrices <==

    J tasked:                  Yes
    K tasked:                  Yes
    wK tasked:                  No
    OpenMP threads:              1
    Integrals threads:           1
    Memory (MB):               715
    Algorithm:                Core
    Integral Cache:           NONE
    Schwarz Cutoff:          1E-12
    Fitting Condition:       1E-12

   => Auxiliary Basis Set <=

  Basis Set: (AUG-CC-PVTZ AUX)
    Blend: AUG-CC-PVTZ-JKFIT
    Number of shells: 260
    Number of basis function: 876
    Number of Cartesian functions: 1074
    Spherical Harmonics?: true
    Max angular momentum: 4

  ==> CPHF Iterations <==

  => Iterations <=

             Iter  Converged  Remaining    Residual
  CGR           1          0          1   8.409E-02
  CGR           2          0          1   1.345E-02
  CGR           3          0          1   3.271E-03
  CGR           4          0          1   8.197E-04
  CGR           5          0          1   1.708E-04
  CGR           6          0          1   3.213E-05
  CGR           7          0          1   5.859E-06
  CGR           8          0          1   1.179E-06
  CGR           9          1          0   1.651E-07

    CGRSolver converged.

  ==> DFCorrGrad: Density-Fitted Correlated Gradients <==

    OpenMP threads:              1
    Integrals threads:           1
    Memory (MB):               715
    Schwarz Cutoff:          0E+00
    Fitting Condition:       1E-12

   => Auxiliary Basis Set <=

  Basis Set: (AUG-CC-PVTZ AUX)
    Blend: AUG-CC-PVTZ-JKFIT
    Number of shells: 260
    Number of basis function: 876
    Number of Cartesian functions: 1074
    Spherical Harmonics?: true
    Max angular momentum: 4

	-----------------------------------------------------------
	 ==================> DF-MP2 Energies <==================== 
	-----------------------------------------------------------
	 Reference Energy          =    -157.3491737853146901 [Eh]
	 Singles Energy            =      -0.0000000000000001 [Eh]
	 Same-Spin Energy          =      -0.1657861730334294 [Eh]
	 Opposite-Spin Energy      =      -0.6395456275373830 [Eh]
	 Correlation Energy        =      -0.8053318005708124 [Eh]
	 Total Energy              =    -158.1545055858855164 [Eh]
	-----------------------------------------------------------
	 ================> DF-SCS-MP2 Energies <================== 
	-----------------------------------------------------------
	 SCS Same-Spin Scale       =       0.3333333333333333 [-]
	 SCS Opposite-Spin Scale   =       1.2000000000000000 [-]
	 SCS Same-Spin Energy      =      -0.0552620576778098 [Eh]
	 SCS Opposite-Spin Energy  =      -0.7674547530448596 [Eh]
	 SCS Correlation Energy    =      -0.8227168107226694 [Eh]
	 SCS Total Energy          =    -158.1718905960373718 [Eh]
	-----------------------------------------------------------


  -Total Gradient:
     Atom            X                  Y                   Z
    ------   -----------------  -----------------  -----------------
       1       -0.006982603771     0.000717259266    -0.010042097134
       2        0.004827879338    -0.010345256258    -0.004839193700
       3        0.009200352476     0.007251194289    -0.003875421165
       4       -0.009700083317    -0.002273312026     0.025871549037
       5        0.008397843764    -0.004152895588     0.008157540014
       6       -0.007651077108    -0.009065484431     0.005157927852
       7        0.007210549747     0.022697035464    -0.023805765731
       8        0.007687115018     0.009117312348    -0.005615672653
       9        0.001159191297     0.007122118979     0.010895412601
      10       -0.020036721532    -0.026939918197    -0.002452586262
      11       -0.008206010822     0.010016087930    -0.001223570421
      12       -0.003758326363    -0.003989138702    -0.011163429083
      13       -0.007105754833    -0.006223664615     0.006508475081
      14        0.024957646103     0.006068661544     0.006426831562


*** tstop() called on gpu-1-17.local at Wed Jun 14 14:29:47 2017
Module time:
	user time   =     335.65 seconds =       5.59 minutes
	system time =       3.11 seconds =       0.05 minutes
	total time  =        338 seconds =       5.63 minutes
Total time:
	user time   =     335.66 seconds =       5.59 minutes
	system time =       3.11 seconds =       0.05 minutes
	total time  =        338 seconds =       5.63 minutes

			-----------------------------------------
			 OPTKING 2.0: for geometry optimizations 
			  - R.A. King,  Bethel University        
			-----------------------------------------

	Internal coordinates to be generated automatically.
	Detected frag 1 with atoms:  1 2 3 4 5 6 7 8 9 10 11 12 13 14
	---Fragment 1 Bond Connectivity---
	 1 : 4
	 2 : 4
	 3 : 4
	 4 : 1 2 3 7
	 5 : 7
	 6 : 7
	 7 : 4 5 6 10
	 8 : 10
	 9 : 10
	 10 : 7 8 9 14
	 11 : 14
	 12 : 14
	 13 : 14
	 14 : 10 11 12 13

	Assuming in current code that numbering for constraints corresponds to unified fragment.
	Fixed dihedral atom list: 
	    14    10     7     4
	---Fragment 1 Geometry and Gradient---
	 H          -0.5595550813        1.4981974038        3.2141691395
	 H          -2.7969908226        3.5768961500        1.9556115350
	 H          -3.5113073008        0.3681411763        2.2598574424
	 C          -2.0467695478        1.7003981000        1.8592355023
	 H          -2.4851860107        1.4131597278       -2.1677708869
	 H           0.4684559350        2.5469954076       -1.2172386421
	 C          -0.9960818180        1.2128487577       -0.8128372496
	 H          -0.9318311294       -2.6856562544        0.3153292517
	 H          -0.1022413571       -2.1886582815       -2.8405133902
	 C           0.0848415301       -1.4856801600       -0.9545667096
	 H           3.6469752905       -3.3206042351       -0.3082803722
	 H           3.0857266291       -0.7430177898        1.6759320674
	 H           3.9153164014       -0.2460198169       -1.4799105745
	 C           2.8967540158       -1.4459959112       -0.2100146132
	            -0.0069826038        0.0007172593       -0.0100420971
	             0.0048278793       -0.0103452563       -0.0048391937
	             0.0092003525        0.0072511943       -0.0038754212
	            -0.0097000833       -0.0022733120        0.0258715490
	             0.0083978438       -0.0041528956        0.0081575400
	            -0.0076510771       -0.0090654844        0.0051579279
	             0.0072105497        0.0226970355       -0.0238057657
	             0.0076871150        0.0091173123       -0.0056156727
	             0.0011591913        0.0071221190        0.0108954126
	            -0.0200367215       -0.0269399182       -0.0024525863
	            -0.0082060108        0.0100160879       -0.0012235704
	            -0.0037583264       -0.0039891387       -0.0111634291
	            -0.0071057548       -0.0062236646        0.0065084751
	             0.0249576461        0.0060686615        0.0064268316

	Previous optimization step data not found.  Starting new optimization.

	---Fragment 1 Intrafragment Coordinates---
	 - Coordinate -           - BOHR/RAD -       - ANG/DEG -
	 R(1,4)           =         2.022013	       1.070003
	 R(2,4)           =         2.023207	       1.070635
	 R(3,4)           =         2.019970	       1.068922
	 R(4,7)           =         2.912322	       1.541135
	 R(5,7)           =         2.023215	       1.070640
	 R(6,7)           =         2.021969	       1.069980
	 R(7,10)          =         2.910419	       1.540128
	 R(8,10)          =         2.021436	       1.069698
	 R(9,10)          =         2.021379	       1.069668
	 R(10,14)         =         2.909087	       1.539422
	 R(11,14)         =         2.021545	       1.069756
	 R(12,14)         =         2.021555	       1.069761
	 R(13,14)         =         2.022387	       1.070201
	 B(1,4,2)         =         1.910876	     109.485123
	 B(1,4,3)         =         1.911780	     109.536908
	 B(1,4,7)         =         1.909982	     109.433891
	 B(2,4,3)         =         1.910729	     109.476690
	 B(2,4,7)         =         1.910018	     109.435959
	 B(3,4,7)         =         1.910415	     109.458696
	 B(4,7,5)         =         1.909581	     109.410906
	 B(4,7,6)         =         1.911719	     109.533404
	 B(4,7,10)        =         1.911225	     109.505141
	 B(5,7,6)         =         1.911163	     109.501554
	 B(5,7,10)        =         1.909790	     109.422892
	 B(6,7,10)        =         1.910322	     109.453378
	 B(7,10,8)        =         1.910303	     109.452301
	 B(7,10,9)        =         1.910824	     109.482155
	 B(7,10,14)       =         1.911213	     109.504437
	 B(8,10,9)        =         1.910417	     109.458846
	 B(8,10,14)       =         1.910766	     109.478806
	 B(9,10,14)       =         1.910276	     109.450772
	 B(10,14,11)      =         1.910943	     109.488965
	 B(10,14,12)      =         1.911204	     109.503926
	 B(10,14,13)      =         1.911557	     109.524173
	 B(11,14,12)      =         1.910410	     109.458432
	 B(11,14,13)      =         1.910054	     109.438058
	 B(12,14,13)      =         1.909629	     109.413709
	 D(1,4,7,5)       =         3.140416	     179.932580
	 D(1,4,7,6)       =        -1.047707	     -60.029163
	 D(1,4,7,10)      =         1.047336	      60.007921
	 D(2,4,7,5)       =        -1.048852	     -60.094795
	 D(2,4,7,6)       =         1.046211	      59.943462
	 D(2,4,7,10)      =         3.141253	     179.980546
	 D(3,4,7,5)       =         1.045150	      59.882663
	 D(3,4,7,6)       =         3.140212	     179.920919
	 D(3,4,7,10)      =        -1.047931	     -60.041996
	 D(4,7,10,8)      =         0.523765	      30.009524
	 D(4,7,10,9)      =         2.617810	     149.989479
	 D(4,7,10,14)     =        -1.570945	     -90.008518
	 D(5,7,10,8)      =        -1.569187	     -89.907794
	 D(5,7,10,9)      =         0.524858	      30.072161
	 D(5,7,10,14)     =         2.619288	     150.074164
	 D(6,7,10,8)      =         2.619662	     150.095553
	 D(6,7,10,9)      =        -1.569478	     -89.924492
	 D(6,7,10,14)     =         0.524952	      30.077511
	 D(7,10,14,11)    =         3.141408	     179.989448
	 D(7,10,14,12)    =         1.046747	      59.974196
	 D(7,10,14,13)    =        -1.047335	     -60.007849
	 D(8,10,14,11)    =         1.046982	      59.987626
	 D(8,10,14,12)    =        -1.047680	     -60.027626
	 D(8,10,14,13)    =         3.141424	     179.990329
	 D(9,10,14,11)    =        -1.047012	     -59.989345
	 D(9,10,14,12)    =         3.141512	     179.995403
	 D(9,10,14,13)    =         1.047431	      60.013359

	Current energy   :      -158.1545055859

	Generating empirical Hessian (Schlegel '84) for each fragment.
	Adding user-defined constraint: Fragment 1; Coordinate 49:
		Value =    -1.570945; Fixed value    =    -1.570796
		Force =     0.000074; Force constant =     0.500000
	Removing off-diagonal coupling between coordinate 49 and others.
	Taking RFO optimization step.
	Going to follow RFO solution 1.
	Using RFO vector 1.

	Determining step-restricting scale parameter for RS-RFO.
	Maximum step size allowed    0.10000

	 Iter      |step|        alpha        rfo_root  
	------------------------------------------------
	    0     0.20649       1.00000           1
	    1     0.16480       3.52663           1
	    2     0.13070      11.49461           1
	    3     0.10979      23.56137           1
	    4     0.10143      31.55906           1
	    5     0.10004      33.14772           1
	    6     0.10000      33.19138           1
	------------------------------------------------
	Norm of target step-size    0.10000
	Projected energy change by RFO approximation:        -0.0039726331

	Back-transformation to cartesian coordinates...
	Successfully converged to displaced geometry.

	--- Internal Coordinate Step in ANG or DEG, aJ/ANG or AJ/DEG ---
	 ---------------------------------------------------------------------------
	   Coordinate                Previous        Force       Change         New 
	   ----------                --------       ------       ------       ------
	    1 R(1,4)          =      1.070003     0.098343     0.012377     1.082380
	    2 R(2,4)          =      1.070635     0.095700     0.012063     1.082698
	    3 R(3,4)          =      1.068922     0.100691     0.012639     1.081561
	    4 R(4,7)          =      1.541135    -0.055258    -0.008406     1.532729
	    5 R(5,7)          =      1.070640     0.099319     0.012520     1.083159
	    6 R(6,7)          =      1.069980     0.103437     0.013018     1.082998
	    7 R(7,10)         =      1.540128    -0.019305    -0.002930     1.537197
	    8 R(8,10)         =      1.069698     0.105508     0.013269     1.082967
	    9 R(9,10)         =      1.069668     0.105040     0.013209     1.082877
	   10 R(10,14)        =      1.539422    -0.048702    -0.007382     1.532040
	   11 R(11,14)        =      1.069756     0.101122     0.012719     1.082475
	   12 R(12,14)        =      1.069761     0.100126     0.012594     1.082355
	   13 R(13,14)        =      1.070201     0.093578     0.011783     1.081984
	   14 B(1,4,2)        =    109.485123    -0.000284    -0.712823   108.772300
	   15 B(1,4,3)        =    109.536908    -0.000167    -0.453387   109.083521
	   16 B(1,4,7)        =    109.433891     0.000199     0.491567   109.925458
	   17 B(2,4,3)        =    109.476690    -0.000221    -0.543153   108.933537
	   18 B(2,4,7)        =    109.435959     0.000409     1.055950   110.491909
	   19 B(3,4,7)        =    109.458696     0.000065     0.146343   109.605039
	   20 B(4,7,5)        =    109.410906    -0.000181    -0.419040   108.991867
	   21 B(4,7,6)        =    109.533404    -0.000133    -0.224109   109.309295
	   22 B(4,7,10)       =    109.505141     0.000546     1.247717   110.752858
	   23 B(5,7,6)        =    109.501554    -0.000027    -0.367971   109.133583
	   24 B(5,7,10)       =    109.422892    -0.000027     0.117172   109.540065
	   25 B(6,7,10)       =    109.453378    -0.000178    -0.363605   109.089773
	   26 B(7,10,8)       =    109.452301    -0.000182    -0.375541   109.076759
	   27 B(7,10,9)       =    109.482155    -0.000035     0.091485   109.573640
	   28 B(7,10,14)      =    109.504437     0.000554     1.264223   110.768659
	   29 B(8,10,9)       =    109.458846    -0.000024    -0.357791   109.101055
	   30 B(8,10,14)      =    109.478806    -0.000131    -0.209475   109.269331
	   31 B(9,10,14)      =    109.450772    -0.000183    -0.423769   109.027003
	   32 B(10,14,11)     =    109.488965     0.000406     1.048474   110.537438
	   33 B(10,14,12)     =    109.503926     0.000188     0.464354   109.968279
	   34 B(10,14,13)     =    109.524173     0.000057     0.125873   109.650046
	   35 B(11,14,12)     =    109.458432    -0.000279    -0.700661   108.757771
	   36 B(11,14,13)     =    109.438058    -0.000218    -0.535307   108.902751
	   37 B(12,14,13)     =    109.413709    -0.000156    -0.421348   108.992361
	   38 D(1,4,7,5)      =    179.932580     0.000023     0.332138   180.264718
	   39 D(1,4,7,6)      =    -60.029163    -0.000029    -0.504005   -60.533168
	   40 D(1,4,7,10)     =     60.007921    -0.000020    -0.318950    59.688972
	   41 D(2,4,7,5)      =    -60.094795     0.000029     0.418836   -59.675959
	   42 D(2,4,7,6)      =     59.943462    -0.000023    -0.417306    59.526155
	   43 D(2,4,7,10)     =    179.980546    -0.000015    -0.232251   179.748295
	   44 D(3,4,7,5)      =     59.882663     0.000033     0.495705    60.378368
	   45 D(3,4,7,6)      =    179.920919    -0.000019    -0.340437   179.580482
	   46 D(3,4,7,10)     =    -60.041996    -0.000010    -0.155382   -60.197378
	   47 D(4,7,10,8)     =     30.009524     0.000030     0.479252    30.488776
	   48 D(4,7,10,9)     =    149.989479    -0.000007    -0.130442   149.859036
	   49 D(4,7,10,14)    =    -90.008518     0.000014     0.192236   -89.816282
	   50 D(5,7,10,8)     =    -89.907794     0.000008     0.147254   -89.760539
	   51 D(5,7,10,9)     =     30.072161    -0.000029    -0.462440    29.609721
	   52 D(5,7,10,14)    =    150.074164    -0.000007    -0.139762   149.934403
	   53 D(6,7,10,8)     =    150.095553     0.000044     0.746246   150.841798
	   54 D(6,7,10,9)     =    -89.924492     0.000007     0.136551   -89.787941
	   55 D(6,7,10,14)    =     30.077511     0.000029     0.459230    30.536741
	   56 D(7,10,14,11)   =    179.989448    -0.000014    -0.223695   179.765753
	   57 D(7,10,14,12)   =     59.974196    -0.000020    -0.306187    59.668009
	   58 D(7,10,14,13)   =    -60.007849    -0.000010    -0.152845   -60.160694
	   59 D(8,10,14,11)   =     59.987626    -0.000023    -0.412103    59.575523
	   60 D(8,10,14,12)   =    -60.027626    -0.000028    -0.494596   -60.522222
	   61 D(8,10,14,13)   =    179.990329    -0.000019    -0.341253   179.649076
	   62 D(9,10,14,11)   =    -59.989345     0.000028     0.404935   -59.584410
	   63 D(9,10,14,12)   =    179.995403     0.000023     0.322443   180.317846
	   64 D(9,10,14,13)   =     60.013359     0.000032     0.475785    60.489144
	 ---------------------------------------------------------------------------
	Successfully symmetrized geometry.
	 Forces used to impose fixed constraints are not included.
	  Forces zeroed: 49 

  ==> Convergence Check <==

  Measures of convergence in internal coordinates in au.
  Criteria marked as inactive (o), active & met (*), and active & unmet ( ).
  --------------------------------------------------------------------------------------------- ~
   Step     Total Energy     Delta E     MAX Force     RMS Force      MAX Disp      RMS Disp    ~
  --------------------------------------------------------------------------------------------- ~
    Convergence Criteria    1.00e-06 *    3.00e-04 *             o    1.20e-03 *             o  ~
  --------------------------------------------------------------------------------------------- ~
      1    -158.15450559   -1.58e+02      1.28e-02      5.41e-03 o    2.51e-02      1.25e-02 o  ~
  ---------------------------------------------------------------------------------------------

	Writing optimization data to binary file.
	Structure for next step:
	Cartesian Geometry (in Angstrom)
	    H    -0.3174450434   0.7896709924   1.7263212741
	    H    -1.5368172517   1.8700774730   1.0600749579
	    H    -1.8759363974   0.1483220137   1.2100049820
	    C    -1.1080350649   0.8782114808   0.9923761623
	    H    -1.3484721381   0.7277576877  -1.1342664732
	    H     0.2161544554   1.3687095472  -0.6280719873
	    C    -0.5468095327   0.6309967312  -0.4123188934
	    H    -0.4595003820  -1.4410566604   0.1559662373
	    H    -0.0268816783  -1.1399560237  -1.5278177581
	    C     0.0692505571  -0.7737270373  -0.5132946360
	    H     1.9815150199  -1.7366638828  -0.1994636787
	    H     1.6659047300  -0.3861736720   0.8837359570
	    H     2.0880576072  -0.0846362265  -0.8000954748
	    C     1.5525619756  -0.7451655424  -0.1310399242
			--------------------------
			 OPTKING Finished Execution 
			--------------------------

    Structure for next step:
    Molecular point group: c1
    Full point group: C1

    Geometry (in Angstrom), charge = 0, multiplicity = 1:

    H           -0.317328289504     0.789658131472     1.726650122635
    H           -1.536700497780     1.870064612062     1.060403806496
    H           -1.875819643467     0.148309152737     1.210333830566
    C           -1.107918310961     0.878198619897     0.992705010875
    H           -1.348355384164     0.727744826783    -1.133937624615
    H            0.216271209376     1.368696686228    -0.627743138687
    C           -0.546692778800     0.630983870259    -0.411990044819
    H           -0.459383628109    -1.441069521386     0.156295085914
    H           -0.026764924339    -1.139968884648    -1.527488909534
    C            0.069367311067    -0.773739898260    -0.512965787470
    H            1.981631773800    -1.736676743754    -0.199134830166
    H            1.666021483914    -0.386186532916     0.884064805577
    H            2.088174361187    -0.084649087486    -0.799766626185
    C            1.552678729577    -0.745178403351    -0.130711075655

gradient() will perform analytic gradient computation.

*** tstart() called on gpu-1-17.local
*** at Wed Jun 14 14:29:47 2017

    SCF Algorithm Type (re)set to DF.

*** tstart() called on gpu-1-17.local
*** at Wed Jun 14 14:29:47 2017

   => Loading Basis Set <=

    Name: AUG-CC-PVTZ
    Role: ORBITAL
    Keyword: BASIS
    atoms 1-3, 5-6, 8-9, 11-13 entry H          line    34 file /cbio/jclab/home/chayas/anaconda/envs/py35/share/psi4/basis/aug-cc-pvtz.gbs 
    atoms 4, 7, 10, 14         entry C          line   221 file /cbio/jclab/home/chayas/anaconda/envs/py35/share/psi4/basis/aug-cc-pvtz.gbs 


         ---------------------------------------------------------
                                   SCF
            by Justin Turney, Rob Parrish, and Andy Simmonett
                              RHF Reference
                        1 Threads,    953 MiB Core
         ---------------------------------------------------------

  ==> Geometry <==

    Molecular point group: c1
    Full point group: C1

    Geometry (in Angstrom), charge = 0, multiplicity = 1:

       Center              X                  Y                   Z               Mass       
    ------------   -----------------  -----------------  -----------------  -----------------
           H         -0.317328289504     0.789658131472     1.726650122635     1.007825032070
           H         -1.536700497780     1.870064612062     1.060403806496     1.007825032070
           H         -1.875819643467     0.148309152737     1.210333830566     1.007825032070
           C         -1.107918310961     0.878198619897     0.992705010875    12.000000000000
           H         -1.348355384164     0.727744826783    -1.133937624615     1.007825032070
           H          0.216271209376     1.368696686228    -0.627743138687     1.007825032070
           C         -0.546692778800     0.630983870259    -0.411990044819    12.000000000000
           H         -0.459383628109    -1.441069521386     0.156295085914     1.007825032070
           H         -0.026764924339    -1.139968884648    -1.527488909534     1.007825032070
           C          0.069367311067    -0.773739898260    -0.512965787470    12.000000000000
           H          1.981631773800    -1.736676743754    -0.199134830166     1.007825032070
           H          1.666021483914    -0.386186532916     0.884064805577     1.007825032070
           H          2.088174361187    -0.084649087486    -0.799766626185     1.007825032070
           C          1.552678729577    -0.745178403351    -0.130711075655    12.000000000000

  Running in c1 symmetry.

  Rotational constants: A =      0.48961  B =      0.14803  C =      0.13622 [cm^-1]
  Rotational constants: A =  14678.17936  B =   4437.83281  C =   4083.80355 [MHz]
  Nuclear repulsion =  132.908671138119416

  Charge       = 0
  Multiplicity = 1
  Electrons    = 34
  Nalpha       = 17
  Nbeta        = 17

  ==> Algorithm <==

  SCF Algorithm Type is DF.
  DIIS enabled.
  MOM disabled.
  Fractional occupation disabled.
  Guess Type is READ.
  Energy threshold   = 1.00e-10
  Density threshold  = 1.00e-10
  Integral threshold = 0.00e+00

  ==> Primary Basis <==

  Basis Set: AUG-CC-PVTZ
    Blend: AUG-CC-PVTZ
    Number of shells: 146
    Number of basis function: 414
    Number of Cartesian functions: 470
    Spherical Harmonics?: true
    Max angular momentum: 3

   => Loading Basis Set <=

    Name: (AUG-CC-PVTZ AUX)
    Role: JKFIT
    Keyword: DF_BASIS_SCF
    atoms 1-3, 5-6, 8-9, 11-13 entry H          line    69 file /cbio/jclab/home/chayas/anaconda/envs/py35/share/psi4/basis/aug-cc-pvtz-jkfit.gbs 
    atoms 4, 7, 10, 14         entry C          line   161 file /cbio/jclab/home/chayas/anaconda/envs/py35/share/psi4/basis/aug-cc-pvtz-jkfit.gbs 

  Reading orbitals from file 180, no projection.

  ==> Pre-Iterations <==

   -------------------------------------------------------
    Irrep   Nso     Nmo     Nalpha   Nbeta   Ndocc  Nsocc
   -------------------------------------------------------
     A        414     414       0       0       0       0
   -------------------------------------------------------
    Total     414     414      17      17      17       0
   -------------------------------------------------------

  ==> Integral Setup <==

  ==> DFJK: Density-Fitted J/K Matrices <==

    J tasked:                  Yes
    K tasked:                  Yes
    wK tasked:                  No
    OpenMP threads:              1
    Integrals threads:           1
    Memory (MB):               715
    Algorithm:                Core
    Integral Cache:           NONE
    Schwarz Cutoff:          1E-12
    Fitting Condition:       1E-12

   => Auxiliary Basis Set <=

  Basis Set: (AUG-CC-PVTZ AUX)
    Blend: AUG-CC-PVTZ-JKFIT
    Number of shells: 260
    Number of basis function: 876
    Number of Cartesian functions: 1074
    Spherical Harmonics?: true
    Max angular momentum: 4

  Minimum eigenvalue in the overlap matrix is 7.0983976641E-06.
  Using Symmetric Orthogonalization.

  SCF Guess: Orbitals guess was supplied from a previous computation.

  ==> Iterations <==

                           Total Energy        Delta E     RMS |[F,P]|

   @DF-RHF iter   0:  -157.26168718085850   -1.57262e+02   1.67543e-04 
   @DF-RHF iter   1:  -157.35117512116776   -8.94879e-02   6.93413e-05 
   @DF-RHF iter   2:  -157.35167579277555   -5.00672e-04   3.60560e-05 DIIS
   @DF-RHF iter   3:  -157.35178663856917   -1.10846e-04   5.73891e-06 DIIS
   @DF-RHF iter   4:  -157.35179411222816   -7.47366e-06   1.26792e-06 DIIS
   @DF-RHF iter   5:  -157.35179442567127   -3.13443e-07   4.24569e-07 DIIS
   @DF-RHF iter   6:  -157.35179445283921   -2.71679e-08   8.65154e-08 DIIS
   @DF-RHF iter   7:  -157.35179445441622   -1.57701e-09   1.64135e-08 DIIS
   @DF-RHF iter   8:  -157.35179445447298   -5.67582e-11   3.82355e-09 DIIS
   @DF-RHF iter   9:  -157.35179445447659   -3.60956e-12   8.10543e-10 DIIS
   @DF-RHF iter  10:  -157.35179445447636    2.27374e-13   1.59590e-10 DIIS
   @DF-RHF iter  11:  -157.35179445447551    8.52651e-13   3.34287e-11 DIIS

  ==> Post-Iterations <==

    Orbital Energies (a.u.)
    -----------------------

    Doubly Occupied:                                                      

       1A    -11.210045     2A    -11.209451     3A    -11.204521  
       4A    -11.204478     5A     -1.071526     6A     -0.977059  
       7A     -0.866730     8A     -0.783918     9A     -0.628592  
      10A     -0.618476    11A     -0.578508    12A     -0.540932  
      13A     -0.522442    14A     -0.505013    15A     -0.469741  
      16A     -0.456787    17A     -0.451062  

    Virtual:                                                              

      18A      0.032065    19A      0.037725    20A      0.039741  
      21A      0.041156    22A      0.057173    23A      0.058732  
      24A      0.059098    25A      0.061473    26A      0.081493  
      27A      0.082985    28A      0.100105    29A      0.121163  
      30A      0.122341    31A      0.126644    32A      0.129022  
      33A      0.132996    34A      0.139659    35A      0.144233  
      36A      0.155874    37A      0.155961    38A      0.161264  
      39A      0.165602    40A      0.176429    41A      0.192159  
      42A      0.209628    43A      0.213949    44A      0.241597  
      45A      0.246904    46A      0.247867    47A      0.252716  
      48A      0.272703    49A      0.273005    50A      0.298287  
      51A      0.301070    52A      0.306652    53A      0.311367  
      54A      0.322175    55A      0.330621    56A      0.335001  
      57A      0.346483    58A      0.359511    59A      0.359962  
      60A      0.363060    61A      0.364759    62A      0.371787  
      63A      0.383697    64A      0.386268    65A      0.389731  
      66A      0.395942    67A      0.402773    68A      0.405676  
      69A      0.418665    70A      0.424178    71A      0.426465  
      72A      0.436557    73A      0.439970    74A      0.444503  
      75A      0.448848    76A      0.452688    77A      0.465135  
      78A      0.473933    79A      0.477709    80A      0.484805  
      81A      0.485826    82A      0.488165    83A      0.499240  
      84A      0.504238    85A      0.519548    86A      0.524453  
      87A      0.525465    88A      0.535857    89A      0.537095  
      90A      0.543448    91A      0.563612    92A      0.572628  
      93A      0.579023    94A      0.589956    95A      0.595587  
      96A      0.597440    97A      0.606088    98A      0.610994  
      99A      0.621510   100A      0.629028   101A      0.633544  
     102A      0.646519   103A      0.658656   104A      0.673018  
     105A      0.679563   106A      0.729724   107A      0.747089  
     108A      0.782763   109A      0.796723   110A      0.814837  
     111A      0.825908   112A      0.829408   113A      0.832606  
     114A      0.844995   115A      0.849216   116A      0.854422  
     117A      0.855233   118A      0.866178   119A      0.877443  
     120A      0.880573   121A      0.886704   122A      0.898842  
     123A      0.910140   124A      0.915687   125A      0.919204  
     126A      0.923687   127A      0.933776   128A      0.942504  
     129A      0.946075   130A      0.968663   131A      0.972415  
     132A      0.979011   133A      0.987325   134A      0.997063  
     135A      1.008025   136A      1.019163   137A      1.031691  
     138A      1.045505   139A      1.049309   140A      1.058292  
     141A      1.077432   142A      1.090087   143A      1.102276  
     144A      1.105850   145A      1.124128   146A      1.129910  
     147A      1.133758   148A      1.140507   149A      1.145715  
     150A      1.159035   151A      1.169763   152A      1.176528  
     153A      1.185131   154A      1.192675   155A      1.197448  
     156A      1.216188   157A      1.225062   158A      1.239625  
     159A      1.247655   160A      1.247793   161A      1.267177  
     162A      1.280253   163A      1.284706   164A      1.294706  
     165A      1.304861   166A      1.311063   167A      1.336007  
     168A      1.343762   169A      1.360545   170A      1.377062  
     171A      1.378017   172A      1.391568   173A      1.418092  
     174A      1.420979   175A      1.421100   176A      1.440016  
     177A      1.470648   178A      1.473025   179A      1.477798  
     180A      1.512991   181A      1.515515   182A      1.534059  
     183A      1.542258   184A      1.574779   185A      1.580810  
     186A      1.582075   187A      1.600205   188A      1.607204  
     189A      1.623575   190A      1.628259   191A      1.663077  
     192A      1.673229   193A      1.680069   194A      1.681565  
     195A      1.689472   196A      1.709004   197A      1.710895  
     198A      1.723206   199A      1.739448   200A      1.749180  
     201A      1.755865   202A      1.759710   203A      1.765165  
     204A      1.784475   205A      1.794458   206A      1.807494  
     207A      1.814425   208A      1.828224   209A      1.835437  
     210A      1.846961   211A      1.857568   212A      1.870034  
     213A      1.875415   214A      1.896981   215A      1.920351  
     216A      1.952907   217A      1.955490   218A      1.967685  
     219A      1.984956   220A      2.004439   221A      2.019565  
     222A      2.021242   223A      2.049663   224A      2.057898  
     225A      2.069159   226A      2.069851   227A      2.087925  
     228A      2.101958   229A      2.111513   230A      2.120187  
     231A      2.185239   232A      2.197707   233A      2.211479  
     234A      2.213603   235A      2.225512   236A      2.244008  
     237A      2.266046   238A      2.271254   239A      2.289401  
     240A      2.304118   241A      2.318133   242A      2.329040  
     243A      2.358066   244A      2.359275   245A      2.368648  
     246A      2.421507   247A      2.423090   248A      2.447941  
     249A      2.448935   250A      2.487744   251A      2.495017  
     252A      2.537299   253A      2.553156   254A      2.577275  
     255A      2.583319   256A      2.631299   257A      2.792135  
     258A      2.841597   259A      3.004376   260A      3.054874  
     261A      3.216651   262A      3.272888   263A      3.289898  
     264A      3.363002   265A      3.389249   266A      3.420174  
     267A      3.464331   268A      3.500324   269A      3.503546  
     270A      3.520035   271A      3.523751   272A      3.535755  
     273A      3.558360   274A      3.581685   275A      3.596858  
     276A      3.609749   277A      3.630372   278A      3.687265  
     279A      3.693569   280A      3.696711   281A      3.702795  
     282A      3.713549   283A      3.714870   284A      3.753787  
     285A      3.758147   286A      3.793901   287A      3.802577  
     288A      3.809717   289A      3.815525   290A      3.832177  
     291A      3.840864   292A      3.844310   293A      3.854394  
     294A      3.874790   295A      3.940458   296A      3.949647  
     297A      3.970293   298A      3.975088   299A      3.980944  
     300A      3.991980   301A      3.997346   302A      4.015359  
     303A      4.023601   304A      4.030526   305A      4.047517  
     306A      4.071896   307A      4.078670   308A      4.093038  
     309A      4.116372   310A      4.157799   311A      4.185385  
     312A      4.197592   313A      4.205530   314A      4.225567  
     315A      4.235815   316A      4.253962   317A      4.261201  
     318A      4.280160   319A      4.308503   320A      4.323867  
     321A      4.346254   322A      4.350029   323A      4.377085  
     324A      4.414967   325A      4.417270   326A      4.428367  
     327A      4.485730   328A      4.511641   329A      4.574088  
     330A      4.586202   331A      4.615492   332A      4.625092  
     333A      4.665517   334A      4.671373   335A      4.702274  
     336A      4.722176   337A      4.739910   338A      4.782964  
     339A      4.803135   340A      4.809403   341A      4.813190  
     342A      4.856967   343A      4.871519   344A      4.878689  
     345A      4.885225   346A      4.913750   347A      4.923084  
     348A      4.954864   349A      4.955983   350A      4.988919  
     351A      4.993681   352A      5.019441   353A      5.040683  
     354A      5.076358   355A      5.100935   356A      5.127857  
     357A      5.150481   358A      5.189294   359A      5.191462  
     360A      5.219997   361A      5.242073   362A      5.258026  
     363A      5.263332   364A      5.289798   365A      5.290762  
     366A      5.309791   367A      5.358272   368A      5.385934  
     369A      5.403901   370A      5.430605   371A      5.443384  
     372A      5.465771   373A      5.475297   374A      5.506811  
     375A      5.539285   376A      5.579466   377A      5.595361  
     378A      5.614190   379A      5.643090   380A      5.655529  
     381A      5.695801   382A      5.730678   383A      5.754778  
     384A      5.791366   385A      5.811419   386A      5.820447  
     387A      5.835644   388A      5.904967   389A      5.909689  
     390A      6.038702   391A      6.068705   392A      6.103754  
     393A      6.131966   394A      6.155337   395A      6.203854  
     396A      6.239591   397A      6.266321   398A      6.284303  
     399A      6.291778   400A      6.347696   401A      6.358743  
     402A      6.444489   403A      6.582777   404A      6.583109  
     405A      6.774768   406A      6.776625   407A      6.819898  
     408A      6.864699   409A      6.932497   410A      6.973588  
     411A     17.931066   412A     18.172278   413A     18.630973  
     414A     19.083744  

    Final Occupation by Irrep:
              A 
    DOCC [    17 ]

  Energy converged.

  @DF-RHF Final Energy:  -157.35179445447551

   => Energetics <=

    Nuclear Repulsion Energy =            132.9086711381194164
    One-Electron Energy =                -473.9223698546836658
    Two-Electron Energy =                 183.6619042620887399
    DFT Exchange-Correlation Energy =       0.0000000000000000
    Empirical Dispersion Energy =           0.0000000000000000
    PCM Polarization Energy =               0.0000000000000000
    EFP Energy =                            0.0000000000000000
    Total Energy =                       -157.3517944544755096



Properties will be evaluated at   0.000000,   0.000000,   0.000000 Bohr

Properties computed using the SCF density matrix

  Nuclear Dipole Moment: (a.u.)
     X:     0.3635      Y:     0.1087      Z:     0.7028

  Electronic Dipole Moment: (a.u.)
     X:    -0.3816      Y:    -0.1143      Z:    -0.7377

  Dipole Moment: (a.u.)
     X:    -0.0181      Y:    -0.0056      Z:    -0.0349     Total:     0.0397

  Dipole Moment: (Debye)
     X:    -0.0460      Y:    -0.0142      Z:    -0.0887     Total:     0.1009


*** tstop() called on gpu-1-17.local at Wed Jun 14 14:30:54 2017
Module time:
	user time   =      66.30 seconds =       1.11 minutes
	system time =       0.39 seconds =       0.01 minutes
	total time  =         67 seconds =       1.12 minutes
Total time:
	user time   =     402.01 seconds =       6.70 minutes
	system time =       3.57 seconds =       0.06 minutes
	total time  =        405 seconds =       6.75 minutes

  //>>>>>>>>>>>>>>>>>>>>>>>>>>>>>>>>>>>//
  //               DFMP2               //
  //<<<<<<<<<<<<<<<<<<<<<<<<<<<<<<<<<<<//

   => Loading Basis Set <=

    Name: (AUG-CC-PVTZ AUX)
    Role: RIFIT
    Keyword: DF_BASIS_MP2
    atoms 1-3, 5-6, 8-9, 11-13 entry H          line    29 file /cbio/jclab/home/chayas/anaconda/envs/py35/share/psi4/basis/aug-cc-pvtz-ri.gbs 
    atoms 4, 7, 10, 14         entry C          line   147 file /cbio/jclab/home/chayas/anaconda/envs/py35/share/psi4/basis/aug-cc-pvtz-ri.gbs 

	 --------------------------------------------------------
	                          DF-MP2                         
	      2nd-Order Density-Fitted Moller-Plesset Theory     
	              RMP2 Wavefunction,   1 Threads             
	                                                         
	        Rob Parrish, Justin Turney, Andy Simmonett,      
	           Ed Hohenstein, and C. David Sherrill          
	 --------------------------------------------------------

   => Auxiliary Basis Set <=

  Basis Set: (AUG-CC-PVTZ AUX)
    Blend: AUG-CC-PVTZ-RI
    Number of shells: 252
    Number of basis function: 884
    Number of Cartesian functions: 1094
    Spherical Harmonics?: true
    Max angular momentum: 4

	 --------------------------------------------------------
	                 NBF =   414, NAUX =   884
	 --------------------------------------------------------
	   CLASS    FOCC     OCC    AOCC    AVIR     VIR    FVIR
	   PAIRS       0      17      17     397     397       0
	 --------------------------------------------------------


         ------------------------------------------------------------
                                     CPHF                           
                                  Rob Parrish                       
         ------------------------------------------------------------

  ==> Geometry <==

    Molecular point group: c1
    Full point group: C1

    Geometry (in Angstrom), charge = 0, multiplicity = 1:

       Center              X                  Y                   Z               Mass       
    ------------   -----------------  -----------------  -----------------  -----------------
           H         -0.317328289504     0.789658131472     1.726650122635     1.007825032070
           H         -1.536700497780     1.870064612062     1.060403806496     1.007825032070
           H         -1.875819643467     0.148309152737     1.210333830566     1.007825032070
           C         -1.107918310961     0.878198619897     0.992705010875    12.000000000000
           H         -1.348355384164     0.727744826783    -1.133937624615     1.007825032070
           H          0.216271209376     1.368696686228    -0.627743138687     1.007825032070
           C         -0.546692778800     0.630983870259    -0.411990044819    12.000000000000
           H         -0.459383628109    -1.441069521386     0.156295085914     1.007825032070
           H         -0.026764924339    -1.139968884648    -1.527488909534     1.007825032070
           C          0.069367311067    -0.773739898260    -0.512965787470    12.000000000000
           H          1.981631773800    -1.736676743754    -0.199134830166     1.007825032070
           H          1.666021483914    -0.386186532916     0.884064805577     1.007825032070
           H          2.088174361187    -0.084649087486    -0.799766626185     1.007825032070
           C          1.552678729577    -0.745178403351    -0.130711075655    12.000000000000

  Nuclear repulsion =  132.908671138119388
  Reference energy  = -157.351794454475510

  ==> Basis Set <==

  Basis Set: AUG-CC-PVTZ
    Blend: AUG-CC-PVTZ
    Number of shells: 146
    Number of basis function: 414
    Number of Cartesian functions: 470
    Spherical Harmonics?: true
    Max angular momentum: 3

  ==> CGRSolver (by Rob Parrish) <==

   Number of roots    =         1
   Preconditioning    =    JACOBI
   Convergence cutoff =     1E-06
   Maximum iterations =       100

  ==> CPHFRHamiltonian (by Rob Parrish) <== 

  ==> DFJK: Density-Fitted J/K Matrices <==

    J tasked:                  Yes
    K tasked:                  Yes
    wK tasked:                  No
    OpenMP threads:              1
    Integrals threads:           1
    Memory (MB):               715
    Algorithm:                Core
    Integral Cache:           NONE
    Schwarz Cutoff:          1E-12
    Fitting Condition:       1E-12

   => Auxiliary Basis Set <=

  Basis Set: (AUG-CC-PVTZ AUX)
    Blend: AUG-CC-PVTZ-JKFIT
    Number of shells: 260
    Number of basis function: 876
    Number of Cartesian functions: 1074
    Spherical Harmonics?: true
    Max angular momentum: 4

  ==> CPHF Iterations <==

  => Iterations <=

             Iter  Converged  Remaining    Residual
  CGR           1          0          1   8.544E-02
  CGR           2          0          1   1.361E-02
  CGR           3          0          1   3.313E-03
  CGR           4          0          1   8.281E-04
  CGR           5          0          1   1.740E-04
  CGR           6          0          1   3.235E-05
  CGR           7          0          1   5.749E-06
  CGR           8          0          1   1.136E-06
  CGR           9          1          0   1.554E-07

    CGRSolver converged.

  ==> DFCorrGrad: Density-Fitted Correlated Gradients <==

    OpenMP threads:              1
    Integrals threads:           1
    Memory (MB):               715
    Schwarz Cutoff:          0E+00
    Fitting Condition:       1E-12

   => Auxiliary Basis Set <=

  Basis Set: (AUG-CC-PVTZ AUX)
    Blend: AUG-CC-PVTZ-JKFIT
    Number of shells: 260
    Number of basis function: 876
    Number of Cartesian functions: 1074
    Spherical Harmonics?: true
    Max angular momentum: 4

	-----------------------------------------------------------
	 ==================> DF-MP2 Energies <==================== 
	-----------------------------------------------------------
	 Reference Energy          =    -157.3517944544755096 [Eh]
	 Singles Energy            =      -0.0000000000000000 [Eh]
	 Same-Spin Energy          =      -0.1656632362882406 [Eh]
	 Opposite-Spin Energy      =      -0.6399288795563099 [Eh]
	 Correlation Energy        =      -0.8055921158445505 [Eh]
	 Total Energy              =    -158.1573865703200568 [Eh]
	-----------------------------------------------------------
	 ================> DF-SCS-MP2 Energies <================== 
	-----------------------------------------------------------
	 SCS Same-Spin Scale       =       0.3333333333333333 [-]
	 SCS Opposite-Spin Scale   =       1.2000000000000000 [-]
	 SCS Same-Spin Energy      =      -0.0552210787627469 [Eh]
	 SCS Opposite-Spin Energy  =      -0.7679146554675719 [Eh]
	 SCS Correlation Energy    =      -0.8231357342303187 [Eh]
	 SCS Total Energy          =    -158.1749301887058152 [Eh]
	-----------------------------------------------------------


  -Total Gradient:
     Atom            X                  Y                   Z
    ------   -----------------  -----------------  -----------------
       1       -0.001197785836     0.000289155029    -0.004042697102
       2        0.001444367768    -0.002628187751    -0.002525078542
       3        0.002832280845     0.001872646618    -0.002159984395
       4       -0.005632222851    -0.001674153395     0.012924274027
       5        0.001667366534    -0.002624755133     0.002964378620
       6       -0.001158634555    -0.003645217785     0.003711123347
       7        0.004204225232     0.012706338524    -0.012617592949
       8        0.003257229407     0.004267518501     0.000214098363
       9        0.001055121665     0.003440014216     0.002533083353
      10       -0.010773704219    -0.014715478417    -0.000743096665
      11       -0.003202888245     0.002268712095    -0.000846697935
      12       -0.002405994068    -0.001357926932    -0.003178853854
      13       -0.002975285737    -0.001793747367     0.001452794027
      14        0.012885924058     0.003595081801     0.002314249703


*** tstop() called on gpu-1-17.local at Wed Jun 14 14:35:13 2017
Module time:
	user time   =     322.39 seconds =       5.37 minutes
	system time =       2.90 seconds =       0.05 minutes
	total time  =        326 seconds =       5.43 minutes
Total time:
	user time   =     658.10 seconds =      10.97 minutes
	system time =       6.08 seconds =       0.10 minutes
	total time  =        664 seconds =      11.07 minutes

			-----------------------------------------
			 OPTKING 2.0: for geometry optimizations 
			  - R.A. King,  Bethel University        
			-----------------------------------------

	Previous internal coordinate definitions found.
	---Fragment 1 Geometry and Gradient---
	 H          -0.5996635614        1.4922376071        3.2628958591
	 H          -2.9039430891        3.5339099676        2.0038727845
	 H          -3.5447854008        0.2802636817        2.2871994691
	 C          -2.0936621853        1.6595548819        1.8759406013
	 H          -2.5480224059        1.3752384172       -2.1428315623
	 H           0.4086933561        2.5864618960       -1.1862626139
	 C          -1.0330996308        1.1923867091       -0.7785483542
	 H          -0.8681092471       -2.7232267339        0.2953549083
	 H          -0.0505783770       -2.1542289920       -2.8865357100
	 C           0.1310852205       -1.4621565058       -0.9693648539
	 H           3.7447413487       -3.2818434270       -0.3763102925
	 H           3.1483243361       -0.7297867834        1.6706403663
	 H           3.9460776604       -0.1599635927       -1.5113398937
	 C           2.9341375713       -1.4081831025       -0.2470081355
	            -0.0011977858        0.0002891550       -0.0040426971
	             0.0014443678       -0.0026281878       -0.0025250785
	             0.0028322808        0.0018726466       -0.0021599844
	            -0.0056322229       -0.0016741534        0.0129242740
	             0.0016673665       -0.0026247551        0.0029643786
	            -0.0011586346       -0.0036452178        0.0037111233
	             0.0042042252        0.0127063385       -0.0126175929
	             0.0032572294        0.0042675185        0.0002140984
	             0.0010551217        0.0034400142        0.0025330834
	            -0.0107737042       -0.0147154784       -0.0007430967
	            -0.0032028882        0.0022687121       -0.0008466979
	            -0.0024059941       -0.0013579269       -0.0031788539
	            -0.0029752857       -0.0017937474        0.0014527940
	             0.0128859241        0.0035950818        0.0023142497

	---Fragment 1 Intrafragment Coordinates---
	 - Coordinate -           - BOHR/RAD -       - ANG/DEG -
	 R(1,4)           =         2.045403	       1.082380
	 R(2,4)           =         2.046003	       1.082698
	 R(3,4)           =         2.043853	       1.081561
	 R(4,7)           =         2.896438	       1.532729
	 R(5,7)           =         2.046874	       1.083159
	 R(6,7)           =         2.046569	       1.082998
	 R(7,10)          =         2.904882	       1.537197
	 R(8,10)          =         2.046510	       1.082967
	 R(9,10)          =         2.046341	       1.082877
	 R(10,14)         =         2.895136	       1.532040
	 R(11,14)         =         2.045581	       1.082475
	 R(12,14)         =         2.045354	       1.082355
	 R(13,14)         =         2.044654	       1.081984
	 B(1,4,2)         =         1.898435	     108.772300
	 B(1,4,3)         =         1.903867	     109.083521
	 B(1,4,7)         =         1.918561	     109.925458
	 B(2,4,3)         =         1.901249	     108.933537
	 B(2,4,7)         =         1.928448	     110.491909
	 B(3,4,7)         =         1.912969	     109.605039
	 B(4,7,5)         =         1.902267	     108.991867
	 B(4,7,6)         =         1.907807	     109.309295
	 B(4,7,10)        =         1.933002	     110.752858
	 B(5,7,6)         =         1.904740	     109.133583
	 B(5,7,10)        =         1.911835	     109.540065
	 B(6,7,10)        =         1.903976	     109.089773
	 B(7,10,8)        =         1.903749	     109.076759
	 B(7,10,9)        =         1.912421	     109.573640
	 B(7,10,14)       =         1.933278	     110.768659
	 B(8,10,9)        =         1.904173	     109.101055
	 B(8,10,14)       =         1.907110	     109.269331
	 B(9,10,14)       =         1.902880	     109.027003
	 B(10,14,11)      =         1.929242	     110.537438
	 B(10,14,12)      =         1.919309	     109.968279
	 B(10,14,13)      =         1.913754	     109.650046
	 B(11,14,12)      =         1.898181	     108.757771
	 B(11,14,13)      =         1.900712	     108.902751
	 B(12,14,13)      =         1.902276	     108.992361
	 D(1,4,7,5)       =        -3.136972	    -179.735282
	 D(1,4,7,6)       =        -1.056503	     -60.533168
	 D(1,4,7,10)      =         1.041769	      59.688972
	 D(2,4,7,5)       =        -1.041542	     -59.675959
	 D(2,4,7,6)       =         1.038927	      59.526155
	 D(2,4,7,10)      =         3.137200	     179.748295
	 D(3,4,7,5)       =         1.053801	      60.378368
	 D(3,4,7,6)       =         3.134271	     179.580482
	 D(3,4,7,10)      =        -1.050642	     -60.197378
	 D(4,7,10,8)      =         0.532130	      30.488776
	 D(4,7,10,9)      =         2.615534	     149.859036
	 D(4,7,10,14)     =        -1.567590	     -89.816282
	 D(5,7,10,8)      =        -1.566617	     -89.760539
	 D(5,7,10,9)      =         0.516787	      29.609721
	 D(5,7,10,14)     =         2.616849	     149.934403
	 D(6,7,10,8)      =         2.632686	     150.841798
	 D(6,7,10,9)      =        -1.567095	     -89.787941
	 D(6,7,10,14)     =         0.532967	      30.536741
	 D(7,10,14,11)    =         3.137504	     179.765753
	 D(7,10,14,12)    =         1.041403	      59.668009
	 D(7,10,14,13)    =        -1.050002	     -60.160694
	 D(8,10,14,11)    =         1.039789	      59.575523
	 D(8,10,14,12)    =        -1.056312	     -60.522222
	 D(8,10,14,13)    =         3.135468	     179.649076
	 D(9,10,14,11)    =        -1.039944	     -59.584410
	 D(9,10,14,12)    =        -3.136045	    -179.682154
	 D(9,10,14,13)    =         1.055735	      60.489144

	Current energy   :      -158.1573865703

	Energy change for the previous step:
		Projected    :        -0.0039726331
		Actual       :        -0.0028809844

	Performing BFGS update.
	Previous computed or guess Hessian on step 1.
	Steps to be used in Hessian update: 1
	Adding user-defined constraint: Fragment 1; Coordinate 49:
		Value =    -1.567590; Fixed value    =    -1.570800
		Force =    -0.001685; Force constant =     0.525000
	Removing off-diagonal coupling between coordinate 49 and others.
	Taking RFO optimization step.
	Going to follow RFO solution 1.
	Using RFO vector 1.

	Determining step-restricting scale parameter for RS-RFO.
	Maximum step size allowed    0.10000

	 Iter      |step|        alpha        rfo_root  
	------------------------------------------------
	    0     0.21910       1.00000           1
	    1     0.16222       3.12553           1
	    2     0.13039       7.88843           1
	    3     0.11044      15.94521           1
	    4     0.10167      22.01255           1
	    5     0.10005      23.37984           1
	    6     0.10000      23.42589           1
	------------------------------------------------
	Norm of target step-size    0.10000
	Projected energy change by RFO approximation:        -0.0021791983

	Back-transformation to cartesian coordinates...
	Could not converge backtransformation.
	Using first guess instead.

	--- Internal Coordinate Step in ANG or DEG, aJ/ANG or AJ/DEG ---
	 ---------------------------------------------------------------------------
	   Coordinate                Previous        Force       Change         New 
	   ----------                --------       ------       ------       ------
	    1 R(1,4)          =      1.082380     0.029988     0.005933     1.088314
	    2 R(2,4)          =      1.082698     0.025850     0.004761     1.087459
	    3 R(3,4)          =      1.081561     0.030560     0.005874     1.087435
	    4 R(4,7)          =      1.532729    -0.036544    -0.009742     1.522987
	    5 R(5,7)          =      1.083159     0.028377     0.005311     1.088470
	    6 R(6,7)          =      1.082998     0.033273     0.006568     1.089566
	    7 R(7,10)         =      1.537197    -0.024267    -0.006881     1.530317
	    8 R(8,10)         =      1.082967     0.033677     0.006633     1.089599
	    9 R(9,10)         =      1.082877     0.029909     0.005579     1.088456
	   10 R(10,14)        =      1.532040    -0.034199    -0.009158     1.522882
	   11 R(11,14)        =      1.082475     0.027136     0.004977     1.087452
	   12 R(12,14)        =      1.082355     0.030341     0.005977     1.088331
	   13 R(13,14)        =      1.081984     0.028555     0.005506     1.087490
	   14 B(1,4,2)        =    108.772300    -0.000174    -0.775439   107.996861
	   15 B(1,4,3)        =    109.083521    -0.000150    -0.813654   108.269867
	   16 B(1,4,7)        =    109.925458     0.000163     0.791015   110.716473
	   17 B(2,4,3)        =    108.933537    -0.000142    -0.642348   108.291189
	   18 B(2,4,7)        =    110.491909     0.000200     0.886609   111.378518
	   19 B(3,4,7)        =    109.605039     0.000094     0.482547   110.087586
	   20 B(4,7,5)        =    108.991867    -0.000066    -0.158870   108.832997
	   21 B(4,7,6)        =    109.309295    -0.000029     0.149908   109.459203
	   22 B(4,7,10)       =    110.752858     0.000240     1.081715   111.834572
	   23 B(5,7,6)        =    109.133583    -0.000085    -1.197183   107.936400
	   24 B(5,7,10)       =    109.540065     0.000002     0.176245   109.716310
	   25 B(6,7,10)       =    109.089773    -0.000066    -0.109525   108.980248
	   26 B(7,10,8)       =    109.076759    -0.000067    -0.106176   108.970584
	   27 B(7,10,9)       =    109.573640    -0.000000     0.160450   109.734090
	   28 B(7,10,14)      =    110.768659     0.000239     1.071190   111.839849
	   29 B(8,10,9)       =    109.101055    -0.000083    -1.181620   107.919435
	   30 B(8,10,14)      =    109.269331    -0.000026     0.176409   109.445740
	   31 B(9,10,14)      =    109.027003    -0.000067    -0.177876   108.849127
	   32 B(10,14,11)     =    110.537438     0.000195     0.855036   111.392475
	   33 B(10,14,12)     =    109.968279     0.000155     0.755041   110.723321
	   34 B(10,14,13)     =    109.650046     0.000087     0.454835   110.104881
	   35 B(11,14,12)     =    108.757771    -0.000169    -0.760902   107.996869
	   36 B(11,14,13)     =    108.902751    -0.000137    -0.619694   108.283057
	   37 B(12,14,13)     =    108.992361    -0.000140    -0.754459   108.237902
	   38 D(1,4,7,5)      =   -179.735282     0.000014     0.370349  -179.364934
	   39 D(1,4,7,6)      =    -60.533168    -0.000022    -1.082765   -61.615933
	   40 D(1,4,7,10)     =     59.688972    -0.000011    -0.429798    59.259174
	   41 D(2,4,7,5)      =    -59.675959     0.000018     0.495198   -59.180761
	   42 D(2,4,7,6)      =     59.526155    -0.000018    -0.957915    58.568240
[...]
	 Singles Energy            =      -0.0000000000000000 [Eh]
	 Same-Spin Energy          =      -0.1656663641073253 [Eh]
	 Opposite-Spin Energy      =      -0.6398756540411314 [Eh]
	 Correlation Energy        =      -0.8055420181484567 [Eh]
	 Total Energy              =    -158.1585410380844223 [Eh]
	-----------------------------------------------------------
	 ================> DF-SCS-MP2 Energies <================== 
	-----------------------------------------------------------
	 SCS Same-Spin Scale       =       0.3333333333333333 [-]
	 SCS Opposite-Spin Scale   =       1.2000000000000000 [-]
	 SCS Same-Spin Energy      =      -0.0552221213691084 [Eh]
	 SCS Opposite-Spin Energy  =      -0.7678507848493578 [Eh]
	 SCS Correlation Energy    =      -0.8230729062184662 [Eh]
	 SCS Total Energy          =    -158.1760719261544352 [Eh]
	-----------------------------------------------------------


  -Total Gradient:
     Atom            X                  Y                   Z
    ------   -----------------  -----------------  -----------------
       1       -0.000008172309     0.000003278324     0.000002698596
       2        0.000001399231    -0.000002296084    -0.000001655678
       3        0.000004585908     0.000003616711    -0.000006623770
       4       -0.002128742999    -0.000928374086    -0.000690955305
       5       -0.000006189235     0.000003449541     0.000003495675
       6       -0.000011284941    -0.000002444831    -0.000009324717
       7        0.003163643339     0.001450048789     0.000094015577
       8       -0.000001065534    -0.000001179661    -0.000014884967
       9        0.000006995930    -0.000003165335    -0.000001885718
      10       -0.001591743720    -0.000977659364     0.002937537773
      11       -0.000002441184     0.000002293434    -0.000000297108
      12        0.000007333316    -0.000003676665    -0.000004376246
      13       -0.000007442472    -0.000004451060     0.000000738618
      14        0.000573124668     0.000460560287    -0.002308482733


*** tstop() called on gpu-1-17.local at Wed Jun 14 15:10:59 2017
Module time:
	user time   =     326.04 seconds =       5.43 minutes
	system time =       3.37 seconds =       0.06 minutes
	total time  =        329 seconds =       5.48 minutes
Total time:
	user time   =    2782.11 seconds =      46.37 minutes
	system time =      24.56 seconds =       0.41 minutes
	total time  =       2810 seconds =      46.83 minutes

			-----------------------------------------
			 OPTKING 2.0: for geometry optimizations 
			  - R.A. King,  Bethel University        
			-----------------------------------------

	Previous internal coordinate definitions found.
	---Fragment 1 Geometry and Gradient---
	 H          -0.6691055061        1.4258253001        3.3173865985
	 H          -2.8727269523        3.5612749954        2.0440052882
	 H          -3.6313740444        0.3300914113        2.2834296803
	 C          -2.1162657572        1.6578900155        1.8729479265
	 H          -2.5702391525        1.3504096999       -2.1229748692
	 H           0.3451854284        2.6109676064       -1.2220903112
	 C          -1.0495813385        1.1701687871       -0.7463088215
	 H          -0.8551463787       -2.7643723482        0.2383142984
	 H          -0.0313920063       -2.1330079041       -2.8958685388
	 C           0.1612550690       -1.4373883744       -0.9673734794
	 H           3.7628688088       -3.2935081571       -0.3268313670
	 H           3.2291445955       -0.6557404424        1.6212189654
	 H           3.9941801552       -0.2209505184       -1.5835305454
	 C           2.9456850778       -1.4083904818       -0.2729028698
	            -0.0000081723        0.0000032783        0.0000026986
	             0.0000013992       -0.0000022961       -0.0000016557
	             0.0000045859        0.0000036167       -0.0000066238
	            -0.0021287430       -0.0009283741       -0.0006909553
	            -0.0000061892        0.0000034495        0.0000034957
	            -0.0000112849       -0.0000024448       -0.0000093247
	             0.0031636433        0.0014500488        0.0000940156
	            -0.0000010655       -0.0000011797       -0.0000148850
	             0.0000069959       -0.0000031653       -0.0000018857
	            -0.0015917437       -0.0009776594        0.0029375378
	            -0.0000024412        0.0000022934       -0.0000002971
	             0.0000073333       -0.0000036767       -0.0000043762
	            -0.0000074425       -0.0000044511        0.0000007386
	             0.0005731247        0.0004605603       -0.0023084827

	---Fragment 1 Intrafragment Coordinates---
	 - Coordinate -           - BOHR/RAD -       - ANG/DEG -
	 R(1,4)           =         2.057797	       1.088939
	 R(2,4)           =         2.055327	       1.087632
	 R(3,4)           =         2.055991	       1.087983
	 R(4,7)           =         2.869877	       1.518673
	 R(5,7)           =         2.059149	       1.089655
	 R(6,7)           =         2.060981	       1.090624
	 R(7,10)          =         2.883461	       1.525862
	 R(8,10)          =         2.060981	       1.090624
	 R(9,10)          =         2.059149	       1.089654
	 R(10,14)         =         2.869875	       1.518672
	 R(11,14)         =         2.055326	       1.087632
	 R(12,14)         =         2.057797	       1.088939
	 R(13,14)         =         2.055991	       1.087984
	 B(1,4,2)         =         1.880577	     107.749147
	 B(1,4,3)         =         1.881022	     107.774601
	 B(1,4,7)         =         1.939152	     111.105235
	 B(2,4,3)         =         1.886238	     108.073467
	 B(2,4,7)         =         1.949953	     111.724105
	 B(3,4,7)         =         1.924489	     110.265122
	 B(4,7,5)         =         1.897389	     108.712369
	 B(4,7,6)         =         1.921355	     110.085521
	 B(4,7,10)        =         1.960305	     112.317204
	 B(5,7,6)         =         1.859011	     106.513464
	 B(5,7,10)        =         1.915597	     109.755651
	 B(6,7,10)        =         1.907428	     109.287588
	 B(7,10,8)        =         1.907429	     109.287627
	 B(7,10,9)        =         1.915598	     109.755677
	 B(7,10,14)       =         1.960304	     112.317120
	 B(8,10,9)        =         1.859011	     106.513480
	 B(8,10,14)       =         1.921356	     110.085563
	 B(9,10,14)       =         1.897388	     108.712335
	 B(10,14,11)      =         1.949955	     111.724181
	 B(10,14,12)      =         1.939153	     111.105263
	 B(10,14,13)      =         1.924489	     110.265111
	 B(11,14,12)      =         1.880576	     107.749088
	 B(11,14,13)      =         1.886237	     108.073400
	 B(12,14,13)      =         1.881022	     107.774630
	 D(1,4,7,5)       =         3.104004	     177.846357
	 D(1,4,7,6)       =        -1.149001	     -65.832924
	 D(1,4,7,10)      =         0.980719	      56.191031
	 D(2,4,7,5)       =        -1.078380	     -61.786602
	 D(2,4,7,6)       =         0.951800	      54.534116
	 D(2,4,7,10)      =         3.081520	     176.558072
	 D(3,4,7,5)       =         1.019600	      58.418753
	 D(3,4,7,6)       =         3.049779	     174.739472
	 D(3,4,7,10)      =        -1.103686	     -63.236572
	 D(4,7,10,8)      =         0.574010	      32.888327
	 D(4,7,10,9)      =         2.606719	     149.353988
	 D(4,7,10,14)     =        -1.563608	     -89.588130
	 D(5,7,10,8)      =        -1.538850	     -88.169637
	 D(5,7,10,9)      =         0.493859	      28.296024
	 D(5,7,10,14)     =         2.606717	     149.353906
	 D(6,7,10,8)      =         2.711627	     155.364759
	 D(6,7,10,9)      =        -1.538849	     -88.169580
	 D(6,7,10,14)     =         0.574009	      32.888302
	 D(7,10,14,11)    =         3.081521	     176.558156
	 D(7,10,14,12)    =         0.980720	      56.191119
	 D(7,10,14,13)    =        -1.103686	     -63.236531
	 D(8,10,14,11)    =         0.951801	      54.534178
	 D(8,10,14,12)    =        -1.149000	     -65.832859
	 D(8,10,14,13)    =         3.049779	     174.739491
	 D(9,10,14,11)    =        -1.078379	     -61.786565
	 D(9,10,14,12)    =         3.104005	     177.846398
	 D(9,10,14,13)    =         1.019600	      58.418748

	Current energy   :      -158.1585410381

	Energy change for the previous step:
		Projected    :        -0.0000030909
		Actual       :        -0.0000001190

	Performing BFGS update.
	Previous computed or guess Hessian on step 1.
	Steps to be used in Hessian update: 7 6
	Adding user-defined constraint: Fragment 1; Coordinate 49:
		Value =    -1.563608; Fixed value    =    -1.570800
		Force =    -0.004855; Force constant =     0.675000
	Removing off-diagonal coupling between coordinate 49 and others.
	Taking RFO optimization step.
	Going to follow RFO solution 1.
	Using RFO vector 1.

	Determining step-restricting scale parameter for RS-RFO.
	Maximum step size allowed    0.10000

	 Iter      |step|        alpha        rfo_root  
	------------------------------------------------
	    0   107.20669       1.00000           1
	    1    53.62844       1.99907           1
	    2    26.83933       3.99443           1
	    3    13.44480       7.97402           1
	    4     6.74758      15.88894           1
	    5     3.39906      31.54321           1
	    6     1.72499      62.16162           1
	    7     0.88833     120.73196           1
	    8     0.47075     227.91858           1
	    9     0.26343     407.57499           1
	   10     0.16265     660.86202           1
	   11     0.11747     916.19981           1
	   12     0.10227    1053.07924           1
	   13     0.10005    1076.60661           1
	   14     0.10000    1077.14451           1
	------------------------------------------------
	Norm of target step-size    0.10000
	Projected energy change by RFO approximation:         0.0000374749

	Back-transformation to cartesian coordinates...
	Successfully converged to displaced geometry.

	--- Internal Coordinate Step in ANG or DEG, aJ/ANG or AJ/DEG ---
	 ---------------------------------------------------------------------------
	   Coordinate                Previous        Force       Change         New 
	   ----------                --------       ------       ------       ------
	    1 R(1,4)          =      1.088939     0.000035     0.000205     1.089145
	    2 R(2,4)          =      1.087632     0.000023    -0.000013     1.087620
	    3 R(3,4)          =      1.087983     0.000058    -0.000206     1.087777
	    4 R(4,7)          =      1.518673     0.000005     0.000559     1.519232
	    5 R(5,7)          =      1.089655    -0.000021     0.000322     1.089977
	    6 R(6,7)          =      1.090624     0.000059    -0.000265     1.090360
	    7 R(7,10)         =      1.525862    -0.000032     0.000863     1.526725
	    8 R(8,10)         =      1.090624     0.000061    -0.000270     1.090354
	    9 R(9,10)         =      1.089654    -0.000018     0.000317     1.089971
	   10 R(10,14)        =      1.518672     0.000011     0.000539     1.519212
	   11 R(11,14)        =      1.087632     0.000025    -0.000016     1.087616
	   12 R(12,14)        =      1.088939     0.000036     0.000209     1.089148
	   13 R(13,14)        =      1.087984     0.000056    -0.000183     1.087801
	   14 B(1,4,2)        =    107.749147     0.000000     0.030638   107.779786
	   15 B(1,4,3)        =    107.774601     0.000000    -0.000224   107.774377
	   16 B(1,4,7)        =    111.105235    -0.000001    -0.042893   111.062342
	   17 B(2,4,3)        =    108.073467    -0.000000     0.055122   108.128588
	   18 B(2,4,7)        =    111.724105     0.000000     0.124162   111.848267
	   19 B(3,4,7)        =    110.265122     0.000001    -0.164219   110.100903
	   20 B(4,7,5)        =    108.712369    -0.000006    -0.553604   108.158764
	   21 B(4,7,6)        =    110.085521     0.000007     0.579957   110.665477
	   22 B(4,7,10)       =    112.317204    -0.000001    -0.132485   112.184719
	   23 B(5,7,6)        =    106.513464     0.000000     0.009160   106.522623
	   24 B(5,7,10)       =    109.755651     0.000000    -0.383702   109.371950
	   25 B(6,7,10)       =    109.287588     0.000000     0.468986   109.756574
	   26 B(7,10,8)       =    109.287627     0.000000     0.470643   109.758270
	   27 B(7,10,9)       =    109.755677     0.000000    -0.383187   109.372489
	   28 B(7,10,14)      =    112.317120    -0.000001    -0.134882   112.182237
	   29 B(8,10,9)       =    106.513480     0.000000     0.009260   106.522740
	   30 B(8,10,14)      =    110.085563     0.000007     0.580581   110.666144
	   31 B(9,10,14)      =    108.712335    -0.000006    -0.554005   108.158330
	   32 B(10,14,11)     =    111.724181     0.000000     0.125258   111.849439
	   33 B(10,14,12)     =    111.105263    -0.000001    -0.042795   111.062468
	   34 B(10,14,13)     =    110.265111     0.000001    -0.161189   110.103922
	   35 B(11,14,12)     =    107.749088     0.000000     0.030743   107.779831
	   36 B(11,14,13)     =    108.073400    -0.000000     0.054214   108.127613
	   37 B(12,14,13)     =    107.774630     0.000000    -0.003915   107.770714
	   38 D(1,4,7,5)      =    177.846357    -0.000000    -1.277336   176.569021
	   39 D(1,4,7,6)      =    -65.832924    -0.000000    -1.264759   -67.097683
	   40 D(1,4,7,10)     =     56.191031     0.000001    -0.335131    55.855900
	   41 D(2,4,7,5)      =    -61.786602    -0.000000    -1.183233   -62.969836
	   42 D(2,4,7,6)      =     54.534116    -0.000000    -1.170656    53.363460
	   43 D(2,4,7,10)     =    176.558072     0.000001    -0.241028   176.317044
	   44 D(3,4,7,5)      =     58.418753    -0.000000    -1.143059    57.275695
	   45 D(3,4,7,6)      =    174.739472    -0.000000    -1.130481   173.608991
	   46 D(3,4,7,10)     =    -63.236572     0.000001    -0.200854   -63.437426
	   47 D(4,7,10,8)     =     32.888327    -0.000002     0.614943    33.503270
	   48 D(4,7,10,9)     =    149.353988    -0.000002     0.676490   150.030478
	   49 D(4,7,10,14)    =    -89.588130    -0.000004    -0.373702   -89.961832
	   50 D(5,7,10,8)     =    -88.169637    -0.000000     1.663443   -86.506195
	   51 D(5,7,10,9)     =     28.296024     0.000000     1.724990    30.021014
	   52 D(5,7,10,14)    =    149.353906    -0.000002     0.674798   150.028704
	   53 D(6,7,10,8)     =    155.364759    -0.000000     1.603261   156.968019
	   54 D(6,7,10,9)     =    -88.169580    -0.000000     1.664808   -86.504772
	   55 D(6,7,10,14)    =     32.888302    -0.000002     0.614616    33.502918
	   56 D(7,10,14,11)   =    176.558156     0.000001    -0.250819   176.307336
	   57 D(7,10,14,12)   =     56.191119     0.000001    -0.345872    55.845247
	   58 D(7,10,14,13)   =    -63.236531     0.000001    -0.209017   -63.445548
	   59 D(8,10,14,11)   =     54.534178    -0.000000    -1.181335    53.352843
	   60 D(8,10,14,12)   =    -65.832859    -0.000000    -1.276388   -67.109247
	   61 D(8,10,14,13)   =    174.739491    -0.000000    -1.139533   173.599958
	   62 D(9,10,14,11)   =    -61.786565    -0.000000    -1.194144   -62.980709
	   63 D(9,10,14,12)   =    177.846398    -0.000000    -1.289196   176.557202
	   64 D(9,10,14,13)   =     58.418748    -0.000000    -1.152342    57.266407
	 ---------------------------------------------------------------------------
	Successfully symmetrized geometry.
	 Forces used to impose fixed constraints are not included.
	  Forces zeroed: 49 

  ==> Convergence Check <==

  Measures of convergence in internal coordinates in au.
  Criteria marked as inactive (o), active & met (*), and active & unmet ( ).
  ---------------------------------------------------------------------------------------------
   Step     Total Energy     Delta E     MAX Force     RMS Force      MAX Disp      RMS Disp   
  ---------------------------------------------------------------------------------------------
    Convergence Criteria    1.00e-06 *    3.00e-04 *             o    1.20e-03 *             o
  ---------------------------------------------------------------------------------------------
      8    -158.15854104   -1.19e-07 *    1.07e-04 *    3.65e-05 o    3.01e-02      1.25e-02 o  ~
  ---------------------------------------------------------------------------------------------


  **** Optimization is complete! (in 8 steps) ****

  ==> Optimization Summary <==

  Measures of convergence in internal coordinates in au.
  --------------------------------------------------------------------------------------------------------------- ~
   Step         Total Energy             Delta E       MAX Force       RMS Force        MAX Disp        RMS Disp  ~
  --------------------------------------------------------------------------------------------------------------- ~
      1    -158.154505585886   -158.154505585886      0.01280632      0.00541286      0.02507460      0.01250763  ~
      2    -158.157386570320     -0.002880984435      0.00443566      0.00208214      0.03174421      0.01251907  ~
      3    -158.158304635628     -0.000918065308      0.00131697      0.00054810      0.03299091      0.01252119  ~
      4    -158.158499232635     -0.000194597007      0.00066797      0.00016490      0.02678345      0.01250035  ~
      5    -158.158540413683     -0.000041181048      0.00026124      0.00006690      0.01743083      0.00873642  ~
      6    -158.158551367980     -0.000010954297      0.00046054      0.00010109      0.00530848      0.00268743  ~
      7    -158.158540919063      0.000010448917      0.00014788      0.00004038      0.00527231      0.00263926  ~
      8    -158.158541038084     -0.000000119021      0.00020825      0.00004484      0.03010676      0.01250060  ~
  --------------------------------------------------------------------------------------------------------------- ~

	Writing optimization data to binary file.
	Final energy is   -158.1585410380844
	Final (previous) structure:
	Cartesian Geometry (in Angstrom)
	    H    -0.3540753840   0.7545142522   1.7554853800
	    H    -1.5201816297   1.8845455611   1.0816410127
	    H    -1.9216403802   0.1746768516   1.2083389442
	    C    -1.1198796060   0.8773176105   0.9911213556
	    H    -1.3601119801   0.7146060355  -1.1234299152
	    H     0.1826642614   1.3816645497  -0.6467023395
	    C    -0.5554145229   0.6192266524  -0.3949296189
	    H    -0.4525239736  -1.4628428427   0.1261104952
	    H    -0.0166119343  -1.1287391686  -1.5324276298
	    C     0.0853325073  -0.7606331676  -0.5119119975
	    H     1.9912244125  -1.7428494531  -0.1729517105
	    H     1.7087897232  -0.3470028969   0.8579121266
	    H     2.1136291051  -0.1169219785  -0.8379682737
	    C     1.5587894069  -0.7452881438  -0.1444139789
	Saving final (previous) structure.
			--------------------------
			 OPTKING Finished Execution 
			--------------------------

    Final optimized geometry and variables:
    Molecular point group: c1
    Full point group: C1

    Geometry (in Angstrom), charge = 0, multiplicity = 1:

    H           -0.354075383991     0.754514252242     1.755485380012
    H           -1.520181629678     1.884545561076     1.081641012745
    H           -1.921640380161     0.174676851625     1.208338944249
    C           -1.119879606025     0.877317610532     0.991121355604
    H           -1.360111980139     0.714606035469    -1.123429915179
    H            0.182664261426     1.381664549697    -0.646702339520
    C           -0.555414522893     0.619226652354    -0.394929618920
    H           -0.452523973603    -1.462842842729     0.126110495172
    H           -0.016611934274    -1.128739168592    -1.532427629825
    C            0.085332507309    -0.760633167641    -0.511911997517
    H            1.991224412544    -1.742849453058    -0.172951710481
    H            1.708789723188    -0.347002896865     0.857912126649
    H            2.113629105139    -0.116921978537    -0.837968273721
    C            1.558789406881    -0.745288143768    -0.144413978865

	Cleaning optimization helper files.

*** Psi4 exiting successfully. Buy a developer a beer!
