
    -----------------------------------------------------------------------
          Psi4: An Open-Source Ab Initio Electronic Structure Package
                               Psi4 1.1 release

                         Git: Rev {HEAD} add49b9 


    R. M. Parrish, L. A. Burns, D. G. A. Smith, A. C. Simmonett,
    A. E. DePrince III, E. G. Hohenstein, U. Bozkaya, A. Yu. Sokolov,
    R. Di Remigio, R. M. Richard, J. F. Gonthier, A. M. James,
    H. R. McAlexander, A. Kumar, M. Saitow, X. Wang, B. P. Pritchard,
    P. Verma, H. F. Schaefer III, K. Patkowski, R. A. King, E. F. Valeev,
    F. A. Evangelista, J. M. Turney, T. D. Crawford, and C. D. Sherrill,
    J. Chem. Theory Comput. in press (2017).
    (doi: 10.1021/acs.jctc.7b00174)

    -----------------------------------------------------------------------


    Psi4 started on: Wednesday, 14 June 2017 02:22PM

    Process ID:   2584
    PSIDATADIR: /cbio/jclab/home/chayas/anaconda/envs/py35/share/psi4
    Memory:     500.0 MiB
    Threads:    1
    
  ==> Input File <==

--------------------------------------------------------------------------

memory 1000 mb

molecule butane {
  symmetry C1
  0 1 
  H      5.460   2.352   -9.164
  H      4.383   3.414   -8.288
  H      5.299   2.197   -7.432
  C      4.782   2.421   -8.340
  H      2.953   1.485   -7.712
  H      3.112   1.640   -9.445
  C      3.631   1.416   -8.537
  H      3.665   -0.647   -7.940
  H      4.104   -0.384   -9.610
  C      4.203   -0.012   -8.612
  H      6.088   -0.983   -8.270
  H      5.791   0.381   -7.220
  H      6.230   0.644   -8.890
  C      5.691   0.009   -8.218
  units Angstrom
}

dih_string = "14 10 7 4 10"
set optking fixed_dihedral = $dih_string

optimize('MP2/aug-cc-pvtz')
--------------------------------------------------------------------------

  Memory set to 953.674 MiB by Python driver.
gradient() will perform analytic gradient computation.

*** tstart() called on gpu-1-9.local
*** at Wed Jun 14 14:22:04 2017

    SCF Algorithm Type (re)set to DF.

*** tstart() called on gpu-1-9.local
*** at Wed Jun 14 14:22:04 2017

   => Loading Basis Set <=

    Name: AUG-CC-PVTZ
    Role: ORBITAL
    Keyword: BASIS
    atoms 1-3, 5-6, 8-9, 11-13 entry H          line    34 file /cbio/jclab/home/chayas/anaconda/envs/py35/share/psi4/basis/aug-cc-pvtz.gbs 
    atoms 4, 7, 10, 14         entry C          line   221 file /cbio/jclab/home/chayas/anaconda/envs/py35/share/psi4/basis/aug-cc-pvtz.gbs 


         ---------------------------------------------------------
                                   SCF
            by Justin Turney, Rob Parrish, and Andy Simmonett
                              RHF Reference
                        1 Threads,    953 MiB Core
         ---------------------------------------------------------

  ==> Geometry <==

    Molecular point group: c1
    Full point group: C1

    Geometry (in Angstrom), charge = 0, multiplicity = 1:

       Center              X                  Y                   Z               Mass       
    ------------   -----------------  -----------------  -----------------  -----------------
           H          0.860387577795     1.384580618586    -0.742395129551     1.007825032070
           H         -0.216612422205     2.446580618586     0.133604870449     1.007825032070
           H          0.699387577795     1.229580618586     0.989604870449     1.007825032070
           C          0.182387577795     1.453580618586     0.081604870449    12.000000000000
           H         -1.646612422205     0.517580618586     0.709604870449     1.007825032070
           H         -1.487612422205     0.672580618586    -1.023395129551     1.007825032070
           C         -0.968612422205     0.448580618586    -0.115395129551    12.000000000000
           H         -0.934612422205    -1.614419381414     0.481604870449     1.007825032070
           H         -0.495612422205    -1.351419381414    -1.188395129551     1.007825032070
           C         -0.396612422205    -0.979419381414    -0.190395129551    12.000000000000
           H          1.488387577795    -1.950419381414     0.151604870449     1.007825032070
           H          1.191387577795    -0.586419381414     1.201604870449     1.007825032070
           H          1.630387577795    -0.323419381414    -0.468395129551     1.007825032070
           C          1.091387577795    -0.958419381414     0.203604870449    12.000000000000

  Running in c1 symmetry.

  Rotational constants: A =      0.37835  B =      0.21017  C =      0.15025 [cm^-1]
  Rotational constants: A =  11342.65167  B =   6300.88185  C =   4504.31460 [MHz]
  Nuclear repulsion =  136.525138510914246

  Charge       = 0
  Multiplicity = 1
  Electrons    = 34
  Nalpha       = 17
  Nbeta        = 17

  ==> Algorithm <==

  SCF Algorithm Type is DF.
  DIIS enabled.
  MOM disabled.
  Fractional occupation disabled.
  Guess Type is SAD.
  Energy threshold   = 1.00e-10
  Density threshold  = 1.00e-10
  Integral threshold = 0.00e+00

  ==> Primary Basis <==

  Basis Set: AUG-CC-PVTZ
    Blend: AUG-CC-PVTZ
    Number of shells: 146
    Number of basis function: 414
    Number of Cartesian functions: 470
    Spherical Harmonics?: true
    Max angular momentum: 3

   => Loading Basis Set <=

    Name: (AUG-CC-PVTZ AUX)
    Role: JKFIT
    Keyword: DF_BASIS_SCF
    atoms 1-3, 5-6, 8-9, 11-13 entry H          line    69 file /cbio/jclab/home/chayas/anaconda/envs/py35/share/psi4/basis/aug-cc-pvtz-jkfit.gbs 
    atoms 4, 7, 10, 14         entry C          line   161 file /cbio/jclab/home/chayas/anaconda/envs/py35/share/psi4/basis/aug-cc-pvtz-jkfit.gbs 

  ==> Pre-Iterations <==

   -------------------------------------------------------
    Irrep   Nso     Nmo     Nalpha   Nbeta   Ndocc  Nsocc
   -------------------------------------------------------
     A        414     414       0       0       0       0
   -------------------------------------------------------
    Total     414     414      17      17      17       0
   -------------------------------------------------------

  ==> Integral Setup <==

  ==> DFJK: Density-Fitted J/K Matrices <==

    J tasked:                  Yes
    K tasked:                  Yes
    wK tasked:                  No
    OpenMP threads:              1
    Integrals threads:           1
    Memory (MB):               715
    Algorithm:                Core
    Integral Cache:           NONE
    Schwarz Cutoff:          1E-12
    Fitting Condition:       1E-12

   => Auxiliary Basis Set <=

  Basis Set: (AUG-CC-PVTZ AUX)
    Blend: AUG-CC-PVTZ-JKFIT
    Number of shells: 260
    Number of basis function: 876
    Number of Cartesian functions: 1074
    Spherical Harmonics?: true
    Max angular momentum: 4

  Minimum eigenvalue in the overlap matrix is 2.9228283162E-06.
  Using Symmetric Orthogonalization.

  SCF Guess: Superposition of Atomic Densities via on-the-fly atomic UHF.

  ==> Iterations <==

                           Total Energy        Delta E     RMS |[F,P]|

   @DF-RHF iter   0:  -159.10506186161967   -1.59105e+02   9.60192e-03 
   @DF-RHF iter   1:  -157.21330523781091    1.89176e+00   9.35876e-04 
   @DF-RHF iter   2:  -157.31894770803095   -1.05642e-01   2.99054e-04 DIIS
   @DF-RHF iter   3:  -157.32983001940894   -1.08823e-02   1.22789e-04 DIIS
   @DF-RHF iter   4:  -157.33177236429640   -1.94234e-03   2.12484e-05 DIIS
   @DF-RHF iter   5:  -157.33185907712459   -8.67128e-05   4.61070e-06 DIIS
   @DF-RHF iter   6:  -157.33186332612041   -4.24900e-06   1.50432e-06 DIIS
   @DF-RHF iter   7:  -157.33186359668684   -2.70566e-07   2.55116e-07 DIIS
   @DF-RHF iter   8:  -157.33186361106411   -1.43773e-08   3.94932e-08 DIIS
   @DF-RHF iter   9:  -157.33186361139335   -3.29237e-10   7.85473e-09 DIIS
   @DF-RHF iter  10:  -157.33186361140841   -1.50635e-11   2.03728e-09 DIIS
   @DF-RHF iter  11:  -157.33186361140702    1.39266e-12   3.96403e-10 DIIS
   @DF-RHF iter  12:  -157.33186361140781   -7.95808e-13   1.27347e-10 DIIS
   @DF-RHF iter  13:  -157.33186361141026   -2.44427e-12   3.52955e-11 DIIS

  ==> Post-Iterations <==

    Orbital Energies (a.u.)
    -----------------------

    Doubly Occupied:                                                      

       1A    -11.205230     2A    -11.204642     3A    -11.195986  
       4A    -11.195925     5A     -1.077301     6A     -0.965517  
       7A     -0.889575     8A     -0.769380     9A     -0.650885  
      10A     -0.626661    11A     -0.562646    12A     -0.540516  
      13A     -0.534731    14A     -0.510224    15A     -0.455961  
      16A     -0.453020    17A     -0.450802  

    Virtual:                                                              

      18A      0.031637    19A      0.037945    20A      0.040669  
      21A      0.040883    22A      0.057355    23A      0.059052  
      24A      0.059820    25A      0.063360    26A      0.073697  
      27A      0.085978    28A      0.103492    29A      0.121381  
      30A      0.125675    31A      0.128169    32A      0.131807  
      33A      0.137123    34A      0.139418    35A      0.141188  
      36A      0.148096    37A      0.159707    38A      0.164846  
      39A      0.169755    40A      0.180871    41A      0.186759  
      42A      0.208453    43A      0.213158    44A      0.223489  
      45A      0.244887    46A      0.252593    47A      0.281525  
      48A      0.285731    49A      0.298267    50A      0.303441  
      51A      0.313499    52A      0.315673    53A      0.318701  
      54A      0.323190    55A      0.326046    56A      0.332355  
      57A      0.343137    58A      0.353529    59A      0.356751  
      60A      0.363335    61A      0.369975    62A      0.370839  
      63A      0.378538    64A      0.391414    65A      0.395267  
      66A      0.396097    67A      0.408171    68A      0.420963  
      69A      0.421386    70A      0.424356    71A      0.425863  
      72A      0.435357    73A      0.438973    74A      0.454040  
      75A      0.457356    76A      0.461451    77A      0.470183  
      78A      0.480744    79A      0.484261    80A      0.491242  
      81A      0.497471    82A      0.503217    83A      0.510545  
      84A      0.510623    85A      0.519377    86A      0.537144  
      87A      0.543752    88A      0.550629    89A      0.561135  
      90A      0.567230    91A      0.573225    92A      0.582455  
      93A      0.583392    94A      0.599277    95A      0.603692  
      96A      0.609716    97A      0.616893    98A      0.619303  
      99A      0.632485   100A      0.637004   101A      0.644739  
     102A      0.686814   103A      0.698536   104A      0.700549  
     105A      0.711451   106A      0.712079   107A      0.734946  
     108A      0.795138   109A      0.804449   110A      0.812533  
     111A      0.817832   112A      0.822522   113A      0.833212  
     114A      0.835691   115A      0.853615   116A      0.854767  
     117A      0.863601   118A      0.871769   119A      0.881685  
     120A      0.886535   121A      0.896814   122A      0.904549  
     123A      0.918704   124A      0.927877   125A      0.932186  
     126A      0.943511   127A      0.958188   128A      0.975283  
     129A      0.977210   130A      0.988418   131A      0.988746  
     132A      0.990138   133A      1.009456   134A      1.011390  
     135A      1.024852   136A      1.028148   137A      1.052816  
     138A      1.059979   139A      1.060381   140A      1.073237  
     141A      1.089867   142A      1.094591   143A      1.097263  
     144A      1.109247   145A      1.117879   146A      1.124372  
     147A      1.145604   148A      1.155566   149A      1.164283  
     150A      1.175890   151A      1.189561   152A      1.197392  
     153A      1.198416   154A      1.204627   155A      1.212303  
     156A      1.214116   157A      1.238040   158A      1.251086  
     159A      1.273100   160A      1.274473   161A      1.290549  
     162A      1.296583   163A      1.301810   164A      1.309230  
     165A      1.325987   166A      1.329161   167A      1.367001  
     168A      1.403819   169A      1.412061   170A      1.426817  
     171A      1.433653   172A      1.444573   173A      1.446679  
     174A      1.448648   175A      1.468709   176A      1.469144  
     177A      1.482299   178A      1.497916   179A      1.513269  
     180A      1.530113   181A      1.533116   182A      1.543633  
     183A      1.573625   184A      1.587456   185A      1.593386  
     186A      1.606549   187A      1.635040   188A      1.638039  
     189A      1.639043   190A      1.657369   191A      1.658226  
     192A      1.674587   193A      1.678862   194A      1.682593  
     195A      1.718031   196A      1.721836   197A      1.728041  
     198A      1.728542   199A      1.737596   200A      1.749221  
     201A      1.768369   202A      1.786015   203A      1.791054  
     204A      1.796207   205A      1.800298   206A      1.826243  
     207A      1.854016   208A      1.856567   209A      1.886924  
     210A      1.889739   211A      1.893929   212A      1.903086  
     213A      1.924037   214A      1.933491   215A      1.960703  
     216A      1.992735   217A      1.996584   218A      2.008922  
     219A      2.011232   220A      2.024355   221A      2.045318  
     222A      2.067612   223A      2.079072   224A      2.086571  
     225A      2.095292   226A      2.097584   227A      2.124939  
     228A      2.127571   229A      2.137050   230A      2.151109  
     231A      2.161219   232A      2.175999   233A      2.220095  
     234A      2.225733   235A      2.271168   236A      2.295247  
     237A      2.299320   238A      2.327383   239A      2.352406  
     240A      2.359398   241A      2.380266   242A      2.389781  
     243A      2.397415   244A      2.419356   245A      2.423514  
     246A      2.442592   247A      2.448496   248A      2.470550  
     249A      2.488550   250A      2.536831   251A      2.543079  
     252A      2.580233   253A      2.608558   254A      2.613266  
     255A      2.636183   256A      2.717490   257A      2.767505  
     258A      2.936017   259A      3.002283   260A      3.064507  
     261A      3.206622   262A      3.279087   263A      3.344075  
     264A      3.403655   265A      3.431055   266A      3.455701  
     267A      3.476651   268A      3.496308   269A      3.504362  
     270A      3.530875   271A      3.548218   272A      3.571686  
     273A      3.586767   274A      3.594819   275A      3.622560  
     276A      3.635799   277A      3.663336   278A      3.666198  
     279A      3.687542   280A      3.710361   281A      3.729993  
     282A      3.751219   283A      3.757699   284A      3.776447  
     285A      3.784305   286A      3.795794   287A      3.814811  
     288A      3.815116   289A      3.843623   290A      3.850949  
     291A      3.869602   292A      3.881364   293A      3.918591  
     294A      3.929978   295A      3.931096   296A      3.972806  
     297A      3.988921   298A      3.989213   299A      4.012477  
     300A      4.024214   301A      4.032731   302A      4.054384  
     303A      4.063402   304A      4.077597   305A      4.090111  
     306A      4.102007   307A      4.122598   308A      4.145360  
     309A      4.155316   310A      4.185970   311A      4.203607  
     312A      4.210060   313A      4.235991   314A      4.293552  
     315A      4.299724   316A      4.299892   317A      4.308591  
     318A      4.362093   319A      4.363906   320A      4.392528  
     321A      4.395539   322A      4.414173   323A      4.420862  
     324A      4.463630   325A      4.477816   326A      4.507574  
     327A      4.573879   328A      4.581943   329A      4.591266  
     330A      4.607257   331A      4.638543   332A      4.648711  
     333A      4.700157   334A      4.740134   335A      4.746057  
     336A      4.757389   337A      4.768260   338A      4.790047  
     339A      4.845560   340A      4.847576   341A      4.870768  
     342A      4.896989   343A      4.917674   344A      4.924877  
     345A      4.933433   346A      4.964923   347A      4.972094  
     348A      4.988987   349A      5.020869   350A      5.024169  
     351A      5.054633   352A      5.072696   353A      5.080980  
     354A      5.118454   355A      5.154611   356A      5.173110  
     357A      5.204808   358A      5.228437   359A      5.235679  
     360A      5.255436   361A      5.306154   362A      5.320011  
     363A      5.327273   364A      5.361967   365A      5.409436  
     366A      5.410326   367A      5.429154   368A      5.448460  
     369A      5.473971   370A      5.497121   371A      5.521507  
     372A      5.533108   373A      5.567670   374A      5.588332  
     375A      5.606505   376A      5.615359   377A      5.674264  
     378A      5.691934   379A      5.699715   380A      5.702132  
     381A      5.737877   382A      5.783203   383A      5.804502  
     384A      5.838474   385A      5.854545   386A      5.944833  
     387A      5.953574   388A      5.961941   389A      6.004932  
     390A      6.052419   391A      6.063213   392A      6.106697  
     393A      6.127579   394A      6.223888   395A      6.231279  
     396A      6.295852   397A      6.312881   398A      6.386073  
     399A      6.398716   400A      6.478302   401A      6.504902  
     402A      6.511643   403A      6.573473   404A      6.688029  
     405A      6.739457   406A      6.837581   407A      6.898476  
     408A      6.949553   409A      6.977654   410A      7.033978  
     411A     17.929287   412A     18.613600   413A     18.988551  
     414A     20.429389  

    Final Occupation by Irrep:
              A 
    DOCC [    17 ]

  Energy converged.

  @DF-RHF Final Energy:  -157.33186361141026

   => Energetics <=

    Nuclear Repulsion Energy =            136.5251385109142461
    One-Electron Energy =                -481.1359960973525745
    Two-Electron Energy =                 187.2789939750280723
    DFT Exchange-Correlation Energy =       0.0000000000000000
    Empirical Dispersion Energy =           0.0000000000000000
    PCM Polarization Energy =               0.0000000000000000
    EFP Energy =                            0.0000000000000000
    Total Energy =                       -157.3318636114102560



Properties will be evaluated at   0.000000,   0.000000,   0.000000 Bohr

Properties computed using the SCF density matrix

  Nuclear Dipole Moment: (a.u.)
     X:     1.0208      Y:     0.3982      Z:     0.2297

  Electronic Dipole Moment: (a.u.)
     X:    -1.0449      Y:    -0.4086      Z:    -0.2351

  Dipole Moment: (a.u.)
     X:    -0.0241      Y:    -0.0104      Z:    -0.0054     Total:     0.0268

  Dipole Moment: (Debye)
     X:    -0.0612      Y:    -0.0263      Z:    -0.0137     Total:     0.0680


*** tstop() called on gpu-1-9.local at Wed Jun 14 14:23:45 2017
Module time:
	user time   =      99.91 seconds =       1.67 minutes
	system time =       0.86 seconds =       0.01 minutes
	total time  =        101 seconds =       1.68 minutes
Total time:
	user time   =      99.92 seconds =       1.67 minutes
	system time =       0.86 seconds =       0.01 minutes
	total time  =        101 seconds =       1.68 minutes

  //>>>>>>>>>>>>>>>>>>>>>>>>>>>>>>>>>>>//
  //               DFMP2               //
  //<<<<<<<<<<<<<<<<<<<<<<<<<<<<<<<<<<<//

   => Loading Basis Set <=

    Name: (AUG-CC-PVTZ AUX)
    Role: RIFIT
    Keyword: DF_BASIS_MP2
    atoms 1-3, 5-6, 8-9, 11-13 entry H          line    29 file /cbio/jclab/home/chayas/anaconda/envs/py35/share/psi4/basis/aug-cc-pvtz-ri.gbs 
    atoms 4, 7, 10, 14         entry C          line   147 file /cbio/jclab/home/chayas/anaconda/envs/py35/share/psi4/basis/aug-cc-pvtz-ri.gbs 

	 --------------------------------------------------------
	                          DF-MP2                         
	      2nd-Order Density-Fitted Moller-Plesset Theory     
	              RMP2 Wavefunction,   1 Threads             
	                                                         
	        Rob Parrish, Justin Turney, Andy Simmonett,      
	           Ed Hohenstein, and C. David Sherrill          
	 --------------------------------------------------------

   => Auxiliary Basis Set <=

  Basis Set: (AUG-CC-PVTZ AUX)
    Blend: AUG-CC-PVTZ-RI
    Number of shells: 252
    Number of basis function: 884
    Number of Cartesian functions: 1094
    Spherical Harmonics?: true
    Max angular momentum: 4

	 --------------------------------------------------------
	                 NBF =   414, NAUX =   884
	 --------------------------------------------------------
	   CLASS    FOCC     OCC    AOCC    AVIR     VIR    FVIR
	   PAIRS       0      17      17     397     397       0
	 --------------------------------------------------------


         ------------------------------------------------------------
                                     CPHF                           
                                  Rob Parrish                       
         ------------------------------------------------------------

  ==> Geometry <==

    Molecular point group: c1
    Full point group: C1

    Geometry (in Angstrom), charge = 0, multiplicity = 1:

       Center              X                  Y                   Z               Mass       
    ------------   -----------------  -----------------  -----------------  -----------------
           H          0.860387577795     1.384580618586    -0.742395129551     1.007825032070
           H         -0.216612422205     2.446580618586     0.133604870449     1.007825032070
           H          0.699387577795     1.229580618586     0.989604870449     1.007825032070
           C          0.182387577795     1.453580618586     0.081604870449    12.000000000000
           H         -1.646612422205     0.517580618586     0.709604870449     1.007825032070
           H         -1.487612422205     0.672580618586    -1.023395129551     1.007825032070
           C         -0.968612422205     0.448580618586    -0.115395129551    12.000000000000
           H         -0.934612422205    -1.614419381414     0.481604870449     1.007825032070
           H         -0.495612422205    -1.351419381414    -1.188395129551     1.007825032070
           C         -0.396612422205    -0.979419381414    -0.190395129551    12.000000000000
           H          1.488387577795    -1.950419381414     0.151604870449     1.007825032070
           H          1.191387577795    -0.586419381414     1.201604870449     1.007825032070
           H          1.630387577795    -0.323419381414    -0.468395129551     1.007825032070
           C          1.091387577795    -0.958419381414     0.203604870449    12.000000000000

  Nuclear repulsion =  136.525138510914246
  Reference energy  = -157.331863611410256

  ==> Basis Set <==

  Basis Set: AUG-CC-PVTZ
    Blend: AUG-CC-PVTZ
    Number of shells: 146
    Number of basis function: 414
    Number of Cartesian functions: 470
    Spherical Harmonics?: true
    Max angular momentum: 3

  ==> CGRSolver (by Rob Parrish) <==

   Number of roots    =         1
   Preconditioning    =    JACOBI
   Convergence cutoff =     1E-06
   Maximum iterations =       100

  ==> CPHFRHamiltonian (by Rob Parrish) <== 

  ==> DFJK: Density-Fitted J/K Matrices <==

    J tasked:                  Yes
    K tasked:                  Yes
    wK tasked:                  No
    OpenMP threads:              1
    Integrals threads:           1
    Memory (MB):               715
    Algorithm:                Core
    Integral Cache:           NONE
    Schwarz Cutoff:          1E-12
    Fitting Condition:       1E-12

   => Auxiliary Basis Set <=

  Basis Set: (AUG-CC-PVTZ AUX)
    Blend: AUG-CC-PVTZ-JKFIT
    Number of shells: 260
    Number of basis function: 876
    Number of Cartesian functions: 1074
    Spherical Harmonics?: true
    Max angular momentum: 4

  ==> CPHF Iterations <==

  => Iterations <=

             Iter  Converged  Remaining    Residual
  CGR           1          0          1   8.697E-02
  CGR           2          0          1   1.368E-02
  CGR           3          0          1   3.108E-03
  CGR           4          0          1   7.339E-04
  CGR           5          0          1   1.737E-04
  CGR           6          0          1   3.045E-05
  CGR           7          0          1   5.749E-06
  CGR           8          0          1   1.321E-06
  CGR           9          1          0   2.003E-07

    CGRSolver converged.

  ==> DFCorrGrad: Density-Fitted Correlated Gradients <==

    OpenMP threads:              1
    Integrals threads:           1
    Memory (MB):               715
    Schwarz Cutoff:          0E+00
    Fitting Condition:       1E-12

   => Auxiliary Basis Set <=

  Basis Set: (AUG-CC-PVTZ AUX)
    Blend: AUG-CC-PVTZ-JKFIT
    Number of shells: 260
    Number of basis function: 876
    Number of Cartesian functions: 1074
    Spherical Harmonics?: true
    Max angular momentum: 4

	-----------------------------------------------------------
	 ==================> DF-MP2 Energies <==================== 
	-----------------------------------------------------------
	 Reference Energy          =    -157.3318636114102560 [Eh]
	 Singles Energy            =      -0.0000000000000000 [Eh]
	 Same-Spin Energy          =      -0.1674948658714719 [Eh]
	 Opposite-Spin Energy      =      -0.6422851479859681 [Eh]
	 Correlation Energy        =      -0.8097800138574400 [Eh]
	 Total Energy              =    -158.1416436252677045 [Eh]
	-----------------------------------------------------------
	 ================> DF-SCS-MP2 Energies <================== 
	-----------------------------------------------------------
	 SCS Same-Spin Scale       =       0.3333333333333333 [-]
	 SCS Opposite-Spin Scale   =       1.2000000000000000 [-]
	 SCS Same-Spin Energy      =      -0.0558316219571573 [Eh]
	 SCS Opposite-Spin Energy  =      -0.7707421775831618 [Eh]
	 SCS Correlation Energy    =      -0.8265737995403191 [Eh]
	 SCS Total Energy          =    -158.1584374109505688 [Eh]
	-----------------------------------------------------------


  -Total Gradient:
     Atom            X                  Y                   Z
    ------   -----------------  -----------------  -----------------
       1       -0.006753767260    -0.005270967554     0.007023615524
       2        0.002021096857    -0.011631055825    -0.000516817258
       3       -0.005172494939    -0.004918894797    -0.007031698680
       4        0.028781618952     0.000892542999     0.004311728748
       5        0.009136521331    -0.003366784333    -0.007701138862
       6        0.008984182332    -0.004660408677     0.007919414879
       7       -0.026464090461     0.001169967122    -0.002664495632
       8        0.005955700293     0.010383084457    -0.004532907856
       9        0.001075171417     0.007351383108     0.010279163484
      10       -0.017438598484    -0.018340427260    -0.007535707719
      11       -0.006784303736     0.011064224809    -0.000390037147
      12       -0.005158337427     0.000731572555    -0.009480446955
      13       -0.008632605358     0.000005293268     0.003202253905
      14        0.020449906481     0.016590470132     0.007117073571


*** tstop() called on gpu-1-9.local at Wed Jun 14 14:30:11 2017
Module time:
	user time   =     480.74 seconds =       8.01 minutes
	system time =       4.87 seconds =       0.08 minutes
	total time  =        487 seconds =       8.12 minutes
Total time:
	user time   =     480.75 seconds =       8.01 minutes
	system time =       4.87 seconds =       0.08 minutes
	total time  =        487 seconds =       8.12 minutes

			-----------------------------------------
			 OPTKING 2.0: for geometry optimizations 
			  - R.A. King,  Bethel University        
			-----------------------------------------

	Internal coordinates to be generated automatically.
	Detected frag 1 with atoms:  1 2 3 4 5 6 7 8 9 10 11 12 13 14
	---Fragment 1 Bond Connectivity---
	 1 : 4
	 2 : 4
	 3 : 4
	 4 : 1 2 3 7
	 5 : 7
	 6 : 7
	 7 : 4 5 6 10
	 8 : 10
	 9 : 10
	 10 : 7 8 9 14
	 11 : 14
	 12 : 14
	 13 : 14
	 14 : 10 11 12 13

	Assuming in current code that numbering for constraints corresponds to unified fragment.
	Fixed dihedral atom list: 
	    14    10     7     4
	---Fragment 1 Geometry and Gradient---
	 H           1.6258968902        2.6164781780       -1.4029234772
	 H          -0.4093381549        4.6233673312        0.2524766152
	 H           1.3216509828        2.3235706274        1.8700821849
	 C           0.3446625721        2.7468692812        0.1542108563
	 H          -3.1116465250        0.9780856208        1.3409588677
	 H          -2.8111800698        1.2709931714       -1.9339365206
	 C          -1.8304122069        0.8476945176       -0.2180651919
	 H          -1.7661615184       -3.0508104945        0.9101013094
	 H          -0.9365717460       -2.5538125215       -2.2457413325
	 C          -0.7494888589       -1.8508344001       -0.3597946519
	 H           2.8126449016       -3.6857584751        0.2864916856
	 H           2.2513962402       -1.1081720299        2.2707041251
	 H           3.0809860125       -0.6111740569       -0.8851385168
	 C           2.0624236269       -1.8111501513        0.3847574445
	            -0.0067537673       -0.0052709676        0.0070236155
	             0.0020210969       -0.0116310558       -0.0005168173
	            -0.0051724949       -0.0049188948       -0.0070316987
	             0.0287816190        0.0008925430        0.0043117287
	             0.0091365213       -0.0033667843       -0.0077011389
	             0.0089841823       -0.0046604087        0.0079194149
	            -0.0264640905        0.0011699671       -0.0026644956
	             0.0059557003        0.0103830845       -0.0045329079
	             0.0010751714        0.0073513831        0.0102791635
	            -0.0174385985       -0.0183404273       -0.0075357077
	            -0.0067843037        0.0110642248       -0.0003900371
	            -0.0051583374        0.0007315726       -0.0094804470
	            -0.0086326054        0.0000052933        0.0032022539
	             0.0204499065        0.0165904701        0.0071170736

	Previous optimization step data not found.  Starting new optimization.

	---Fragment 1 Intrafragment Coordinates---
	 - Coordinate -           - BOHR/RAD -       - ANG/DEG -
	 R(1,4)           =         2.020701	       1.069309
	 R(2,4)           =         2.024702	       1.071426
	 R(3,4)           =         2.019382	       1.068611
	 R(4,7)           =         2.911427	       1.540661
	 R(5,7)           =         2.022157	       1.070079
	 R(6,7)           =         2.021213	       1.069580
	 R(7,10)          =         2.910419	       1.540128
	 R(8,10)          =         2.021436	       1.069698
	 R(9,10)          =         2.021379	       1.069668
	 R(10,14)         =         2.909087	       1.539422
	 R(11,14)         =         2.021545	       1.069756
	 R(12,14)         =         2.021555	       1.069761
	 R(13,14)         =         2.022387	       1.070201
	 B(1,4,2)         =         1.910626	     109.470792
	 B(1,4,3)         =         1.911857	     109.541354
	 B(1,4,7)         =         1.910349	     109.454908
	 B(2,4,3)         =         1.910497	     109.463427
	 B(2,4,7)         =         1.909814	     109.424300
	 B(3,4,7)         =         1.910655	     109.472482
	 B(4,7,5)         =         1.909967	     109.433071
	 B(4,7,6)         =         1.911817	     109.539037
	 B(4,7,10)        =         1.910904	     109.486718
	 B(5,7,6)         =         1.910865	     109.484506
	 B(5,7,10)        =         1.909906	     109.429559
	 B(6,7,10)        =         1.910339	     109.454382
	 B(7,10,8)        =         1.910303	     109.452301
	 B(7,10,9)        =         1.910824	     109.482155
	 B(7,10,14)       =         1.911213	     109.504437
	 B(8,10,9)        =         1.910417	     109.458846
	 B(8,10,14)       =         1.910766	     109.478806
	 B(9,10,14)       =         1.910276	     109.450772
	 B(10,14,11)      =         1.910943	     109.488965
	 B(10,14,12)      =         1.911204	     109.503926
	 B(10,14,13)      =         1.911557	     109.524173
	 B(11,14,12)      =         1.910410	     109.458432
	 B(11,14,13)      =         1.910054	     109.438058
	 B(12,14,13)      =         1.909629	     109.413709
	 D(1,4,7,5)       =         3.141107	     179.972191
	 D(1,4,7,6)       =        -1.047082	     -59.993384
	 D(1,4,7,10)      =         1.047845	      60.037069
	 D(2,4,7,5)       =        -1.048367	     -60.067009
	 D(2,4,7,6)       =         1.046629	      59.967415
	 D(2,4,7,10)      =         3.141555	     179.997868
	 D(3,4,7,5)       =         1.045374	      59.895509
	 D(3,4,7,6)       =         3.140370	     179.929933
	 D(3,4,7,10)      =        -1.047889	     -60.039614
	 D(4,7,10,8)      =         2.269185	     130.014747
	 D(4,7,10,9)      =        -1.919955	    -110.005298
	 D(4,7,10,14)     =         0.174475	       9.996705
	 D(5,7,10,8)      =         0.175885	      10.077473
	 D(5,7,10,9)      =         2.269930	     130.057428
	 D(5,7,10,14)     =        -1.918825	    -109.940568
	 D(6,7,10,8)      =        -1.918169	    -109.903004
	 D(6,7,10,9)      =         0.175876	      10.076951
	 D(6,7,10,14)     =         2.270306	     130.078955
	 D(7,10,14,11)    =         3.141408	     179.989448
	 D(7,10,14,12)    =         1.046747	      59.974196
	 D(7,10,14,13)    =        -1.047335	     -60.007849
	 D(8,10,14,11)    =         1.046982	      59.987626
	 D(8,10,14,12)    =        -1.047680	     -60.027626
	 D(8,10,14,13)    =         3.141424	     179.990329
	 D(9,10,14,11)    =        -1.047012	     -59.989345
	 D(9,10,14,12)    =         3.141512	     179.995403
	 D(9,10,14,13)    =         1.047431	      60.013359

	Current energy   :      -158.1416436253

	Generating empirical Hessian (Schlegel '84) for each fragment.
	Adding user-defined constraint: Fragment 1; Coordinate 49:
		Value =     0.174475; Fixed value    =     0.174533
		Force =     0.000029; Force constant =     0.500000
	Removing off-diagonal coupling between coordinate 49 and others.
	Taking RFO optimization step.
	Going to follow RFO solution 1.
	Using RFO vector 1.

	Determining step-restricting scale parameter for RS-RFO.
	Maximum step size allowed    0.10000

	 Iter      |step|        alpha        rfo_root  
	------------------------------------------------
	    0     0.47425       1.00000           1
	    1     0.31366       4.48102           1
	    2     0.20953      13.92465           1
	    3     0.14817      32.78651           1
	    4     0.11581      58.06978           1
	    5     0.10273      76.10521           1
	    6     0.10011      80.62859           1
	    7     0.10000      80.82221           1
	------------------------------------------------
	Norm of target step-size    0.10000
	Projected energy change by RFO approximation:        -0.0114882169

	Back-transformation to cartesian coordinates...
	Could not converge backtransformation.
	Using first guess instead.

	--- Internal Coordinate Step in ANG or DEG, aJ/ANG or AJ/DEG ---
	 ---------------------------------------------------------------------------
	   Coordinate                Previous        Force       Change         New 
	   ----------                --------       ------       ------       ------
	    1 R(1,4)          =      1.069309     0.077069     0.004357     1.073665
	    2 R(2,4)          =      1.071426     0.095218     0.006235     1.077662
	    3 R(3,4)          =      1.068611     0.061347     0.003935     1.072546
	    4 R(4,7)          =      1.540661    -0.007699     0.001800     1.542461
	    5 R(5,7)          =      1.070079     0.098398     0.004914     1.074993
	    6 R(6,7)          =      1.069580     0.099347     0.005067     1.074646
	    7 R(7,10)         =      1.540128     0.243943     0.012897     1.553025
	    8 R(8,10)         =      1.069698     0.098920     0.005046     1.074744
	    9 R(9,10)         =      1.069668     0.100896     0.005036     1.074704
	   10 R(10,14)        =      1.539422    -0.003139     0.002040     1.541462
	   11 R(11,14)        =      1.069756     0.105116     0.006717     1.076472
	   12 R(12,14)        =      1.069761     0.074744     0.004244     1.074005
	   13 R(13,14)        =      1.070201     0.052360     0.003498     1.073698
	   14 B(1,4,2)        =    109.470792    -0.000354    -0.224766   109.246025
	   15 B(1,4,3)        =    109.541354    -0.000268    -0.279586   109.261767
	   16 B(1,4,7)        =    109.454908     0.000418     0.299194   109.754103
	   17 B(2,4,3)        =    109.463427    -0.000378    -0.235844   109.227583
	   18 B(2,4,7)        =    109.424300     0.000010     0.014989   109.439289
	   19 B(3,4,7)        =    109.472482     0.000572     0.422862   109.895344
	   20 B(4,7,5)        =    109.433071    -0.001308    -0.861373   108.571698
	   21 B(4,7,6)        =    109.539037    -0.001479    -0.948560   108.590477
	   22 B(4,7,10)       =    109.486718     0.004685     3.085215   112.571933
	   23 B(5,7,6)        =    109.484506     0.000595     0.301949   109.786455
	   24 B(5,7,10)       =    109.429559    -0.001257    -0.797489   108.632070
	   25 B(6,7,10)       =    109.454382    -0.001235    -0.788221   108.666160
	   26 B(7,10,8)       =    109.452301    -0.001235    -0.788229   108.664071
	   27 B(7,10,9)       =    109.482155    -0.001262    -0.801410   108.680746
	   28 B(7,10,14)      =    109.504437     0.004685     3.084544   112.588981
	   29 B(8,10,9)       =    109.458846     0.000596     0.302375   109.761221
	   30 B(8,10,14)      =    109.478806    -0.001473    -0.943958   108.534848
	   31 B(9,10,14)      =    109.450772    -0.001311    -0.863140   108.587632
	   32 B(10,14,11)     =    109.488965     0.000005     0.012154   109.501119
	   33 B(10,14,12)     =    109.503926     0.000410     0.293983   109.797909
	   34 B(10,14,13)     =    109.524173     0.000565     0.419612   109.943785
	   35 B(11,14,12)     =    109.458432    -0.000349    -0.222483   109.235949
	   36 B(11,14,13)     =    109.438058    -0.000375    -0.235355   109.202704
	   37 B(12,14,13)     =    109.413709    -0.000257    -0.272142   109.141567
	   38 D(1,4,7,5)      =    179.972191     0.000149     0.421020   180.393211
	   39 D(1,4,7,6)      =    -59.993384    -0.000076    -0.287200   -60.280584
	   40 D(1,4,7,10)     =     60.037069     0.000029     0.046993    60.084062
	   41 D(2,4,7,5)      =    -60.067009     0.000110     0.337917   -59.729092
	   42 D(2,4,7,6)      =     59.967415    -0.000115    -0.370303    59.597112
	   43 D(2,4,7,10)     =    179.997868    -0.000010    -0.036110   179.961759
	   44 D(3,4,7,5)      =     59.895509     0.000085     0.317249    60.212758
	   45 D(3,4,7,6)      =    179.929933    -0.000140    -0.390971   179.538962
	   46 D(3,4,7,10)     =    -60.039614    -0.000035    -0.056778   -60.096392
	   47 D(4,7,10,8)     =    130.014747     0.000120     0.362386   130.377133
	   48 D(4,7,10,9)     =   -110.005298    -0.000063    -0.216434  -110.221732
	   49 D(4,7,10,14)    =      9.996705     0.000050     0.119788    10.116493
	   50 D(5,7,10,8)     =     10.077473     0.000008     0.025295    10.102768
	   51 D(5,7,10,9)     =    130.057428    -0.000176    -0.553525   129.503903
	   52 D(5,7,10,14)    =   -109.940568    -0.000063    -0.217303  -110.157872
	   53 D(6,7,10,8)     =   -109.903004     0.000190     0.601199  -109.301804
	   54 D(6,7,10,9)     =     10.076951     0.000007     0.022379    10.099330
	   55 D(6,7,10,14)    =    130.078955     0.000119     0.358601   130.437556
	   56 D(7,10,14,11)   =    179.989448    -0.000010    -0.035310   179.954138
	   57 D(7,10,14,12)   =     59.974196     0.000030     0.049475    60.023671
	   58 D(7,10,14,13)   =    -60.007849    -0.000035    -0.058407   -60.066256
	   59 D(8,10,14,11)   =     59.987626    -0.000115    -0.368553    59.619073
	   60 D(8,10,14,12)   =    -60.027626    -0.000075    -0.283768   -60.311394
	   61 D(8,10,14,13)   =    179.990329    -0.000140    -0.391650   179.598679
	   62 D(9,10,14,11)   =    -59.989345     0.000109     0.335300   -59.654045
	   63 D(9,10,14,12)   =    179.995403     0.000149     0.420085   180.415488
	   64 D(9,10,14,13)   =     60.013359     0.000084     0.312203    60.325562
	 ---------------------------------------------------------------------------
	Successfully symmetrized geometry.
	 Forces used to impose fixed constraints are not included.
	  Forces zeroed: 49 

  ==> Convergence Check <==

  Measures of convergence in internal coordinates in au.
  Criteria marked as inactive (o), active & met (*), and active & unmet ( ).
  --------------------------------------------------------------------------------------------- ~
   Step     Total Energy     Delta E     MAX Force     RMS Force      MAX Disp      RMS Disp    ~
  --------------------------------------------------------------------------------------------- ~
    Convergence Criteria    1.00e-06 *    3.00e-04 *             o    1.20e-03 *             o  ~
  --------------------------------------------------------------------------------------------- ~
      1    -158.14164363   -1.58e+02      6.16e-02      1.44e-02 o    5.38e-02      1.26e-02 o  ~
  ---------------------------------------------------------------------------------------------

	Writing optimization data to binary file.
	Structure for next step:
	Cartesian Geometry (in Angstrom)
	    H     0.8348925623   1.4926299610  -0.7426091187
	    H    -0.3087851350   2.5060678749   0.1186926183
	    H     0.6731993774   1.3473464300   0.9939453997
	    C     0.1443546750   1.5291231715   0.0787208481
	    H    -1.6359990157   0.5197489966   0.7131524892
	    H    -1.4734256324   0.6683350799  -1.0315822623
	    C    -0.9525008544   0.4620072462  -0.1145593154
	    H    -0.9310581583  -1.6031134946   0.4937727373
	    H    -0.4859647646  -1.3455351314  -1.1874895068
	    C    -0.3769590544  -0.9788006745  -0.1831929653
	    H     1.4604214300  -2.0570640113   0.1395133940
	    H     1.2444285880  -0.6837480969   1.2078902826
	    H     1.6907395026  -0.4280586065  -0.4648300619
	    C     1.1140825688  -1.0398100847   0.2030436476
			--------------------------
			 OPTKING Finished Execution 
			--------------------------

    Structure for next step:
    Molecular point group: c1
    Full point group: C1

    Geometry (in Angstrom), charge = 0, multiplicity = 1:

    H            0.831026443408     1.491078521699    -0.743478361950
    H           -0.312651253878     2.504516435623     0.117823375049
    H            0.669333258478     1.345794990664     0.993076156492
    C            0.140488556160     1.527571732146     0.077851604887
    H           -1.639865134615     0.518197557320     0.712283245920
    H           -1.477291751267     0.666783640615    -1.032451505570
    C           -0.956366973290     0.460455806836    -0.115428558614
    H           -0.934924277225    -1.604664933955     0.492903494024
    H           -0.489830883484    -1.347086570684    -1.188358750047
    C           -0.380825173238    -0.980352113853    -0.184062208585
    H            1.456555311083    -2.058615450632     0.138644150753
    H            1.240562469082    -0.685299536191     1.207021039398
    H            1.686873383691    -0.429610045775    -0.465699305171
    C            1.110216449868    -1.041361524034     0.202174404311

gradient() will perform analytic gradient computation.

*** tstart() called on gpu-1-9.local
*** at Wed Jun 14 14:30:11 2017

    SCF Algorithm Type (re)set to DF.

*** tstart() called on gpu-1-9.local
*** at Wed Jun 14 14:30:11 2017

   => Loading Basis Set <=

    Name: AUG-CC-PVTZ
    Role: ORBITAL
    Keyword: BASIS
    atoms 1-3, 5-6, 8-9, 11-13 entry H          line    34 file /cbio/jclab/home/chayas/anaconda/envs/py35/share/psi4/basis/aug-cc-pvtz.gbs 
    atoms 4, 7, 10, 14         entry C          line   221 file /cbio/jclab/home/chayas/anaconda/envs/py35/share/psi4/basis/aug-cc-pvtz.gbs 


         ---------------------------------------------------------
                                   SCF
            by Justin Turney, Rob Parrish, and Andy Simmonett
                              RHF Reference
                        1 Threads,    953 MiB Core
         ---------------------------------------------------------

  ==> Geometry <==

    Molecular point group: c1
    Full point group: C1

    Geometry (in Angstrom), charge = 0, multiplicity = 1:

       Center              X                  Y                   Z               Mass       
    ------------   -----------------  -----------------  -----------------  -----------------
           H          0.831026443408     1.491078521699    -0.743478361950     1.007825032070
           H         -0.312651253878     2.504516435623     0.117823375049     1.007825032070
           H          0.669333258478     1.345794990664     0.993076156492     1.007825032070
           C          0.140488556160     1.527571732146     0.077851604887    12.000000000000
           H         -1.639865134615     0.518197557320     0.712283245920     1.007825032070
           H         -1.477291751267     0.666783640615    -1.032451505570     1.007825032070
           C         -0.956366973290     0.460455806836    -0.115428558614    12.000000000000
           H         -0.934924277225    -1.604664933955     0.492903494024     1.007825032070
           H         -0.489830883484    -1.347086570684    -1.188358750047     1.007825032070
           C         -0.380825173238    -0.980352113853    -0.184062208585    12.000000000000
           H          1.456555311083    -2.058615450632     0.138644150753     1.007825032070
           H          1.240562469082    -0.685299536191     1.207021039398     1.007825032070
           H          1.686873383691    -0.429610045775    -0.465699305171     1.007825032070
           C          1.110216449868    -1.041361524034     0.202174404311    12.000000000000

  Running in c1 symmetry.

  Rotational constants: A =      0.38749  B =      0.19243  C =      0.14230 [cm^-1]
  Rotational constants: A =  11616.57956  B =   5768.87251  C =   4266.08891 [MHz]
  Nuclear repulsion =  134.597079480268889

  Charge       = 0
  Multiplicity = 1
  Electrons    = 34
  Nalpha       = 17
  Nbeta        = 17

  ==> Algorithm <==

  SCF Algorithm Type is DF.
  DIIS enabled.
  MOM disabled.
  Fractional occupation disabled.
  Guess Type is READ.
  Energy threshold   = 1.00e-10
  Density threshold  = 1.00e-10
  Integral threshold = 0.00e+00

  ==> Primary Basis <==

  Basis Set: AUG-CC-PVTZ
    Blend: AUG-CC-PVTZ
    Number of shells: 146
    Number of basis function: 414
    Number of Cartesian functions: 470
    Spherical Harmonics?: true
    Max angular momentum: 3

   => Loading Basis Set <=

    Name: (AUG-CC-PVTZ AUX)
    Role: JKFIT
    Keyword: DF_BASIS_SCF
    atoms 1-3, 5-6, 8-9, 11-13 entry H          line    69 file /cbio/jclab/home/chayas/anaconda/envs/py35/share/psi4/basis/aug-cc-pvtz-jkfit.gbs 
    atoms 4, 7, 10, 14         entry C          line   161 file /cbio/jclab/home/chayas/anaconda/envs/py35/share/psi4/basis/aug-cc-pvtz-jkfit.gbs 

  Reading orbitals from file 180, no projection.

  ==> Pre-Iterations <==

   -------------------------------------------------------
    Irrep   Nso     Nmo     Nalpha   Nbeta   Ndocc  Nsocc
   -------------------------------------------------------
     A        414     414       0       0       0       0
   -------------------------------------------------------
    Total     414     414      17      17      17       0
   -------------------------------------------------------

  ==> Integral Setup <==

  ==> DFJK: Density-Fitted J/K Matrices <==

    J tasked:                  Yes
    K tasked:                  Yes
    wK tasked:                  No
    OpenMP threads:              1
    Integrals threads:           1
    Memory (MB):               715
    Algorithm:                Core
    Integral Cache:           NONE
    Schwarz Cutoff:          1E-12
    Fitting Condition:       1E-12

   => Auxiliary Basis Set <=

  Basis Set: (AUG-CC-PVTZ AUX)
    Blend: AUG-CC-PVTZ-JKFIT
    Number of shells: 260
    Number of basis function: 876
    Number of Cartesian functions: 1074
    Spherical Harmonics?: true
    Max angular momentum: 4

  Minimum eigenvalue in the overlap matrix is 3.5350770422E-06.
  Using Symmetric Orthogonalization.

  SCF Guess: Orbitals guess was supplied from a previous computation.

  ==> Iterations <==

                           Total Energy        Delta E     RMS |[F,P]|

   @DF-RHF iter   0:  -157.31526545786761   -1.57315e+02   2.97993e-04 
   @DF-RHF iter   1:  -157.34129190474917   -2.60264e-02   5.78622e-05 
   @DF-RHF iter   2:  -157.34172405963218   -4.32155e-04   2.46197e-05 DIIS
   @DF-RHF iter   3:  -157.34179063245060   -6.65728e-05   8.55907e-06 DIIS
   @DF-RHF iter   4:  -157.34180327736834   -1.26449e-05   8.30983e-07 DIIS
   @DF-RHF iter   5:  -157.34180343440022   -1.57032e-07   2.03221e-07 DIIS
   @DF-RHF iter   6:  -157.34180344162502   -7.22480e-09   6.68501e-08 DIIS
   @DF-RHF iter   7:  -157.34180344237669   -7.51669e-10   1.61304e-08 DIIS
   @DF-RHF iter   8:  -157.34180344242810   -5.14149e-11   3.23338e-09 DIIS
   @DF-RHF iter   9:  -157.34180344242907   -9.66338e-13   6.35513e-10 DIIS
   @DF-RHF iter  10:  -157.34180344242986   -7.95808e-13   1.26066e-10 DIIS
   @DF-RHF iter  11:  -157.34180344242887    9.94760e-13   2.08655e-11 DIIS

  ==> Post-Iterations <==

    Orbital Energies (a.u.)
    -----------------------

    Doubly Occupied:                                                      

       1A    -11.208410     2A    -11.207856     3A    -11.200170  
       4A    -11.200120     5A     -1.069157     6A     -0.970280  
       7A     -0.883329     8A     -0.769582     9A     -0.645570  
      10A     -0.618178    11A     -0.567512    12A     -0.534047  
      13A     -0.527463    14A     -0.520610    15A     -0.455517  
      16A     -0.453341    17A     -0.452446  

    Virtual:                                                              

      18A      0.031677    19A      0.037974    20A      0.040786  
      21A      0.041056    22A      0.057545    23A      0.058600  
      24A      0.059672    25A      0.063603    26A      0.074442  
      27A      0.084555    28A      0.103032    29A      0.122655  
      30A      0.126068    31A      0.128026    32A      0.132458  
      33A      0.137272    34A      0.139143    35A      0.141348  
      36A      0.147444    37A      0.159544    38A      0.163723  
      39A      0.171074    40A      0.182669    41A      0.186570  
      42A      0.207432    43A      0.212850    44A      0.219828  
      45A      0.243004    46A      0.247818    47A      0.280390  
      48A      0.282507    49A      0.294962    50A      0.302122  
      51A      0.311948    52A      0.314039    53A      0.316848  
      54A      0.320897    55A      0.326282    56A      0.329703  
      57A      0.343506    58A      0.353673    59A      0.357319  
      60A      0.364400    61A      0.369306    62A      0.371108  
      63A      0.378096    64A      0.389734    65A      0.393671  
      66A      0.395423    67A      0.403220    68A      0.415490  
      69A      0.420263    70A      0.423226    71A      0.426833  
      72A      0.427159    73A      0.438682    74A      0.447262  
      75A      0.454076    76A      0.455559    77A      0.466997  
      78A      0.478846    79A      0.482435    80A      0.489621  
      81A      0.492927    82A      0.496169    83A      0.503682  
      84A      0.508920    85A      0.515683    86A      0.531027  
      87A      0.538435    88A      0.547331    89A      0.550688  
      90A      0.560081    91A      0.571162    92A      0.580019  
      93A      0.580449    94A      0.590747    95A      0.600869  
      96A      0.604298    97A      0.610234    98A      0.618082  
      99A      0.632531   100A      0.635665   101A      0.636018  
     102A      0.674777   103A      0.698327   104A      0.701833  
     105A      0.707829   106A      0.709520   107A      0.738834  
     108A      0.794431   109A      0.801760   110A      0.804477  
     111A      0.815457   112A      0.826810   113A      0.827983  
     114A      0.837880   115A      0.852114   116A      0.853799  
     117A      0.861255   118A      0.872687   119A      0.877050  
     120A      0.886988   121A      0.897660   122A      0.900768  
     123A      0.916466   124A      0.924404   125A      0.927363  
     126A      0.932709   127A      0.952472   128A      0.965687  
     129A      0.971417   130A      0.977892   131A      0.988806  
     132A      0.993005   133A      0.998465   134A      1.007428  
     135A      1.023588   136A      1.029142   137A      1.052311  
     138A      1.052936   139A      1.061046   140A      1.065692  
     141A      1.087446   142A      1.092028   143A      1.095810  
     144A      1.102413   145A      1.108996   146A      1.114518  
     147A      1.128435   148A      1.145725   149A      1.147460  
     150A      1.167806   151A      1.178092   152A      1.190294  
     153A      1.195482   154A      1.201794   155A      1.202046  
     156A      1.215052   157A      1.222463   158A      1.238305  
     159A      1.262085   160A      1.267889   161A      1.276872  
     162A      1.286842   163A      1.292005   164A      1.307726  
     165A      1.314971   166A      1.321302   167A      1.368050  
     168A      1.378966   169A      1.401239   170A      1.406683  
     171A      1.417259   172A      1.429352   173A      1.434231  
     174A      1.441901   175A      1.457793   176A      1.464686  
     177A      1.487391   178A      1.497037   179A      1.509060  
     180A      1.525539   181A      1.532171   182A      1.544755  
     183A      1.556888   184A      1.578781   185A      1.582340  
     186A      1.592180   187A      1.614670   188A      1.625305  
     189A      1.631066   190A      1.647210   191A      1.649709  
     192A      1.664770   193A      1.669212   194A      1.680865  
     195A      1.688484   196A      1.694878   197A      1.717010  
     198A      1.719927   199A      1.732275   200A      1.742254  
     201A      1.742925   202A      1.775365   203A      1.788409  
     204A      1.791428   205A      1.794232   206A      1.818453  
     207A      1.844682   208A      1.848842   209A      1.852928  
     210A      1.879481   211A      1.889036   212A      1.905356  
     213A      1.912825   214A      1.917487   215A      1.949046  
     216A      1.968147   217A      1.982572   218A      1.998097  
     219A      1.998215   220A      2.013586   221A      2.017638  
     222A      2.033225   223A      2.065930   224A      2.073159  
     225A      2.084687   226A      2.092023   227A      2.102114  
     228A      2.109360   229A      2.120544   230A      2.133793  
     231A      2.143629   232A      2.179521   233A      2.211565  
     234A      2.219052   235A      2.258751   236A      2.296082  
     237A      2.301220   238A      2.314409   239A      2.322845  
     240A      2.347189   241A      2.360545   242A      2.379671  
     243A      2.385449   244A      2.394401   245A      2.406293  
     246A      2.414292   247A      2.421323   248A      2.451958  
     249A      2.467885   250A      2.494026   251A      2.530915  
     252A      2.575543   253A      2.601960   254A      2.611140  
     255A      2.632192   256A      2.700581   257A      2.762181  
     258A      2.922611   259A      2.979206   260A      3.063274  
     261A      3.197943   262A      3.260451   263A      3.378947  
     264A      3.382850   265A      3.435838   266A      3.451722  
     267A      3.460397   268A      3.490884   269A      3.502870  
     270A      3.527289   271A      3.535992   272A      3.557046  
     273A      3.584029   274A      3.591246   275A      3.612795  
     276A      3.639964   277A      3.643023   278A      3.674889  
     279A      3.679535   280A      3.692301   281A      3.707099  
     282A      3.731436   283A      3.733290   284A      3.747039  
     285A      3.762938   286A      3.790527   287A      3.811889  
     288A      3.813020   289A      3.820906   290A      3.844719  
     291A      3.866004   292A      3.874170   293A      3.884967  
     294A      3.922467   295A      3.929767   296A      3.957568  
     297A      3.982370   298A      3.984100   299A      4.012442  
     300A      4.020720   301A      4.021661   302A      4.033375  
     303A      4.048591   304A      4.074603   305A      4.074819  
     306A      4.081194   307A      4.103110   308A      4.133186  
     309A      4.148775   310A      4.156651   311A      4.163451  
     312A      4.192958   313A      4.233422   314A      4.252800  
     315A      4.273982   316A      4.293140   317A      4.300979  
     318A      4.318270   319A      4.351652   320A      4.369849  
     321A      4.378178   322A      4.401460   323A      4.410260  
     324A      4.428006   325A      4.462839   326A      4.463520  
     327A      4.546097   328A      4.569870   329A      4.581044  
     330A      4.596362   331A      4.606510   332A      4.615425  
     333A      4.687410   334A      4.707243   335A      4.737260  
     336A      4.740474   337A      4.774034   338A      4.774185  
     339A      4.787693   340A      4.819134   341A      4.842204  
     342A      4.861730   343A      4.895335   344A      4.900543  
     345A      4.916258   346A      4.938132   347A      4.940121  
     348A      4.956720   349A      4.987223   350A      4.999162  
     351A      5.043901   352A      5.065445   353A      5.073675  
     354A      5.103073   355A      5.147522   356A      5.161164  
     357A      5.164742   358A      5.206104   359A      5.208614  
     360A      5.218275   361A      5.272710   362A      5.281542  
     363A      5.313923   364A      5.329346   365A      5.341188  
     366A      5.360433   367A      5.388688   368A      5.434258  
     369A      5.457211   370A      5.460025   371A      5.492167  
     372A      5.496509   373A      5.526278   374A      5.537706  
     375A      5.554902   376A      5.585573   377A      5.627476  
     378A      5.657313   379A      5.662333   380A      5.675049  
     381A      5.696139   382A      5.772130   383A      5.778369  
     384A      5.805242   385A      5.811083   386A      5.925225  
     387A      5.928839   388A      5.950404   389A      5.965444  
     390A      6.032162   391A      6.063108   392A      6.087071  
     393A      6.092355   394A      6.184852   395A      6.186962  
     396A      6.248785   397A      6.254871   398A      6.351174  
     399A      6.364082   400A      6.429324   401A      6.465262  
     402A      6.488455   403A      6.569242   404A      6.664961  
     405A      6.727989   406A      6.826737   407A      6.853018  
     408A      6.867553   409A      7.010336   410A      7.014926  
     411A     17.777445   412A     18.471435   413A     18.567502  
     414A     20.306476  

    Final Occupation by Irrep:
              A 
    DOCC [    17 ]

  Energy converged.

  @DF-RHF Final Energy:  -157.34180344242887

   => Energetics <=

    Nuclear Repulsion Energy =            134.5970794802688886
    One-Electron Energy =                -477.3105879522846635
    Two-Electron Energy =                 185.3717050295868773
    DFT Exchange-Correlation Energy =       0.0000000000000000
    Empirical Dispersion Energy =           0.0000000000000000
    PCM Polarization Energy =               0.0000000000000000
    EFP Energy =                            0.0000000000000000
    Total Energy =                       -157.3418034424288692



Properties will be evaluated at   0.000000,   0.000000,   0.000000 Bohr

Properties computed using the SCF density matrix

  Nuclear Dipole Moment: (a.u.)
     X:     0.9654      Y:     0.3760      Z:     0.2173

  Electronic Dipole Moment: (a.u.)
     X:    -0.9914      Y:    -0.3868      Z:    -0.2231

  Dipole Moment: (a.u.)
     X:    -0.0260      Y:    -0.0107      Z:    -0.0058     Total:     0.0287

  Dipole Moment: (Debye)
     X:    -0.0660      Y:    -0.0273      Z:    -0.0147     Total:     0.0730


*** tstop() called on gpu-1-9.local at Wed Jun 14 14:31:37 2017
Module time:
	user time   =      85.37 seconds =       1.42 minutes
	system time =       0.73 seconds =       0.01 minutes
	total time  =         86 seconds =       1.43 minutes
Total time:
	user time   =     566.18 seconds =       9.44 minutes
	system time =       5.70 seconds =       0.10 minutes
	total time  =        573 seconds =       9.55 minutes

  //>>>>>>>>>>>>>>>>>>>>>>>>>>>>>>>>>>>//
  //               DFMP2               //
  //<<<<<<<<<<<<<<<<<<<<<<<<<<<<<<<<<<<//

   => Loading Basis Set <=

    Name: (AUG-CC-PVTZ AUX)
    Role: RIFIT
    Keyword: DF_BASIS_MP2
    atoms 1-3, 5-6, 8-9, 11-13 entry H          line    29 file /cbio/jclab/home/chayas/anaconda/envs/py35/share/psi4/basis/aug-cc-pvtz-ri.gbs 
    atoms 4, 7, 10, 14         entry C          line   147 file /cbio/jclab/home/chayas/anaconda/envs/py35/share/psi4/basis/aug-cc-pvtz-ri.gbs 

	 --------------------------------------------------------
	                          DF-MP2                         
	      2nd-Order Density-Fitted Moller-Plesset Theory     
	              RMP2 Wavefunction,   1 Threads             
	                                                         
	        Rob Parrish, Justin Turney, Andy Simmonett,      
	           Ed Hohenstein, and C. David Sherrill          
	 --------------------------------------------------------

   => Auxiliary Basis Set <=

  Basis Set: (AUG-CC-PVTZ AUX)
    Blend: AUG-CC-PVTZ-RI
    Number of shells: 252
    Number of basis function: 884
    Number of Cartesian functions: 1094
    Spherical Harmonics?: true
    Max angular momentum: 4

	 --------------------------------------------------------
	                 NBF =   414, NAUX =   884
	 --------------------------------------------------------
	   CLASS    FOCC     OCC    AOCC    AVIR     VIR    FVIR
	   PAIRS       0      17      17     397     397       0
	 --------------------------------------------------------


         ------------------------------------------------------------
                                     CPHF                           
                                  Rob Parrish                       
         ------------------------------------------------------------

  ==> Geometry <==

    Molecular point group: c1
    Full point group: C1

    Geometry (in Angstrom), charge = 0, multiplicity = 1:

       Center              X                  Y                   Z               Mass       
    ------------   -----------------  -----------------  -----------------  -----------------
           H          0.831026443408     1.491078521699    -0.743478361950     1.007825032070
           H         -0.312651253878     2.504516435623     0.117823375049     1.007825032070
           H          0.669333258478     1.345794990664     0.993076156492     1.007825032070
           C          0.140488556160     1.527571732146     0.077851604887    12.000000000000
           H         -1.639865134615     0.518197557320     0.712283245920     1.007825032070
           H         -1.477291751267     0.666783640615    -1.032451505570     1.007825032070
           C         -0.956366973290     0.460455806836    -0.115428558614    12.000000000000
           H         -0.934924277225    -1.604664933955     0.492903494024     1.007825032070
           H         -0.489830883484    -1.347086570684    -1.188358750047     1.007825032070
           C         -0.380825173238    -0.980352113853    -0.184062208585    12.000000000000
           H          1.456555311083    -2.058615450632     0.138644150753     1.007825032070
           H          1.240562469082    -0.685299536191     1.207021039398     1.007825032070
           H          1.686873383691    -0.429610045775    -0.465699305171     1.007825032070
           C          1.110216449868    -1.041361524034     0.202174404311    12.000000000000

  Nuclear repulsion =  134.597079480268889
  Reference energy  = -157.341803442428869

  ==> Basis Set <==

  Basis Set: AUG-CC-PVTZ
    Blend: AUG-CC-PVTZ
    Number of shells: 146
    Number of basis function: 414
    Number of Cartesian functions: 470
    Spherical Harmonics?: true
    Max angular momentum: 3

  ==> CGRSolver (by Rob Parrish) <==

   Number of roots    =         1
   Preconditioning    =    JACOBI
   Convergence cutoff =     1E-06
   Maximum iterations =       100

  ==> CPHFRHamiltonian (by Rob Parrish) <== 

  ==> DFJK: Density-Fitted J/K Matrices <==

    J tasked:                  Yes
    K tasked:                  Yes
    wK tasked:                  No
    OpenMP threads:              1
    Integrals threads:           1
    Memory (MB):               715
    Algorithm:                Core
    Integral Cache:           NONE
    Schwarz Cutoff:          1E-12
    Fitting Condition:       1E-12

   => Auxiliary Basis Set <=

  Basis Set: (AUG-CC-PVTZ AUX)
    Blend: AUG-CC-PVTZ-JKFIT
    Number of shells: 260
    Number of basis function: 876
    Number of Cartesian functions: 1074
    Spherical Harmonics?: true
    Max angular momentum: 4

  ==> CPHF Iterations <==

  => Iterations <=

             Iter  Converged  Remaining    Residual
  CGR           1          0          1   8.596E-02
  CGR           2          0          1   1.367E-02
  CGR           3          0          1   3.127E-03
  CGR           4          0          1   7.523E-04
  CGR           5          0          1   1.763E-04
  CGR           6          0          1   3.012E-05
  CGR           7          0          1   5.451E-06
  CGR           8          0          1   1.233E-06
  CGR           9          1          0   1.848E-07

    CGRSolver converged.

  ==> DFCorrGrad: Density-Fitted Correlated Gradients <==

    OpenMP threads:              1
    Integrals threads:           1
    Memory (MB):               715
    Schwarz Cutoff:          0E+00
    Fitting Condition:       1E-12

   => Auxiliary Basis Set <=

  Basis Set: (AUG-CC-PVTZ AUX)
    Blend: AUG-CC-PVTZ-JKFIT
    Number of shells: 260
    Number of basis function: 876
    Number of Cartesian functions: 1074
    Spherical Harmonics?: true
    Max angular momentum: 4

	-----------------------------------------------------------
	 ==================> DF-MP2 Energies <==================== 
	-----------------------------------------------------------
	 Reference Energy          =    -157.3418034424288692 [Eh]
	 Singles Energy            =      -0.0000000000000000 [Eh]
	 Same-Spin Energy          =      -0.1662709445675431 [Eh]
	 Opposite-Spin Energy      =      -0.6411123646445758 [Eh]
	 Correlation Energy        =      -0.8073833092121189 [Eh]
	 Total Energy              =    -158.1491867516409968 [Eh]
	-----------------------------------------------------------
	 ================> DF-SCS-MP2 Energies <================== 
	-----------------------------------------------------------
	 SCS Same-Spin Scale       =       0.3333333333333333 [-]
	 SCS Opposite-Spin Scale   =       1.2000000000000000 [-]
	 SCS Same-Spin Energy      =      -0.0554236481891810 [Eh]
	 SCS Opposite-Spin Energy  =      -0.7693348375734909 [Eh]
	 SCS Correlation Energy    =      -0.8247584857626719 [Eh]
	 SCS Total Energy          =    -158.1665619281915269 [Eh]
	-----------------------------------------------------------


  -Total Gradient:
     Atom            X                  Y                   Z
    ------   -----------------  -----------------  -----------------
       1       -0.006198605662    -0.003284937165     0.005432887526
       2        0.000864370554    -0.006737156449    -0.000279627838
       3       -0.005069391964    -0.002271594611    -0.006411487618
       4        0.020843761980     0.009777400049     0.004263153289
       5        0.007944164280    -0.002725756128    -0.004199272477
       6        0.008242956248    -0.002991510455     0.004520810084
       7       -0.024448376159     0.002664461181    -0.003302821574
       8        0.005275920180     0.008174446378    -0.001461675159
       9        0.001987683654     0.006572919329     0.006629262096
      10       -0.015446738145    -0.018222945354    -0.005910002333
      11       -0.004106054695     0.006354105522    -0.000340141646
      12       -0.004097865405    -0.000652376647    -0.007606943247
      13       -0.006754906660    -0.002041635498     0.003267219195
      14        0.020963081796     0.005384579845     0.005398639701


*** tstop() called on gpu-1-9.local at Wed Jun 14 14:38:06 2017
Module time:
	user time   =     469.93 seconds =       7.83 minutes
	system time =       4.54 seconds =       0.08 minutes
	total time  =        475 seconds =       7.92 minutes
Total time:
	user time   =     950.74 seconds =      15.85 minutes
	system time =       9.51 seconds =       0.16 minutes
	total time  =        962 seconds =      16.03 minutes

			-----------------------------------------
			 OPTKING 2.0: for geometry optimizations 
			  - R.A. King,  Bethel University        
			-----------------------------------------

	Previous internal coordinate definitions found.
	---Fragment 1 Geometry and Gradient---
	 H           1.5704123872        2.8177300486       -1.4049704898
	 H          -0.5908252449        4.7328501586        0.2226539109
	 H           1.2648565502        2.5431839634        1.8766419649
	 C           0.2654848959        2.8866922221        0.1471182122
	 H          -3.0988959993        0.9792514661        1.3460202638
	 H          -2.7916768283        1.2600384706       -1.9510505910
	 C          -1.8072716621        0.8701353712       -0.2181283637
	 H          -1.7667508389       -3.0323772602        0.9314526136
	 H          -0.9256462212       -2.5456246959       -2.2456725852
	 C          -0.7196552819       -1.8525970090       -0.3478271656
	 H           2.7524906353       -3.8902194146        0.2619994748
	 H           2.3443233173       -1.2950284424        2.2809392011
	 H           3.1877287160       -0.8118453305       -0.8800441470
	 C           2.0980050385       -1.9678880857        0.3820542552
	            -0.0061986057       -0.0032849372        0.0054328875
	             0.0008643706       -0.0067371564       -0.0002796278
	            -0.0050693920       -0.0022715946       -0.0064114876
	             0.0208437620        0.0097774000        0.0042631533
	             0.0079441643       -0.0027257561       -0.0041992725
	             0.0082429562       -0.0029915105        0.0045208101
	            -0.0244483762        0.0026644612       -0.0033028216
	             0.0052759202        0.0081744464       -0.0014616752
	             0.0019876837        0.0065729193        0.0066292621
	            -0.0154467381       -0.0182229454       -0.0059100023
	            -0.0041060547        0.0063541055       -0.0003401416
	            -0.0040978654       -0.0006523766       -0.0076069432
	            -0.0067549067       -0.0020416355        0.0032672192
	             0.0209630818        0.0053845798        0.0053986397

	---Fragment 1 Intrafragment Coordinates---
	 - Coordinate -           - BOHR/RAD -       - ANG/DEG -
	 R(1,4)           =         2.028933	       1.073665
	 R(2,4)           =         2.036485	       1.077662
	 R(3,4)           =         2.026819	       1.072546
	 R(4,7)           =         2.914829	       1.542461
	 R(5,7)           =         2.031443	       1.074993
	 R(6,7)           =         2.030787	       1.074646
	 R(7,10)          =         2.934792	       1.553025
	 R(8,10)          =         2.030972	       1.074744
	 R(9,10)          =         2.030896	       1.074704
	 R(10,14)         =         2.912942	       1.541462
	 R(11,14)         =         2.034238	       1.076472
	 R(12,14)         =         2.029576	       1.074005
	 R(13,14)         =         2.028996	       1.073698
	 B(1,4,2)         =         1.906703	     109.246025
	 B(1,4,3)         =         1.906978	     109.261767
	 B(1,4,7)         =         1.915570	     109.754103
	 B(2,4,3)         =         1.906381	     109.227583
	 B(2,4,7)         =         1.910076	     109.439289
	 B(3,4,7)         =         1.918036	     109.895344
	 B(4,7,5)         =         1.894934	     108.571698
	 B(4,7,6)         =         1.895261	     108.590477
	 B(4,7,10)        =         1.964751	     112.571933
	 B(5,7,6)         =         1.916135	     109.786455
	 B(5,7,10)        =         1.895987	     108.632070
	 B(6,7,10)        =         1.896582	     108.666160
	 B(7,10,8)        =         1.896546	     108.664071
	 B(7,10,9)        =         1.896837	     108.680746
	 B(7,10,14)       =         1.965048	     112.588981
	 B(8,10,9)        =         1.915695	     109.761221
	 B(8,10,14)       =         1.894290	     108.534848
	 B(9,10,14)       =         1.895212	     108.587632
	 B(10,14,11)      =         1.911155	     109.501119
	 B(10,14,12)      =         1.916335	     109.797909
	 B(10,14,13)      =         1.918881	     109.943785
	 B(11,14,12)      =         1.906527	     109.235949
	 B(11,14,13)      =         1.905947	     109.202704
	 B(12,14,13)      =         1.904880	     109.141567
	 D(1,4,7,5)       =        -3.134730	    -179.606789
	 D(1,4,7,6)       =        -1.052095	     -60.280584
	 D(1,4,7,10)      =         1.048665	      60.084062
	 D(2,4,7,5)       =        -1.042469	     -59.729092
	 D(2,4,7,6)       =         1.040166	      59.597112
	 D(2,4,7,10)      =         3.140925	     179.961759
	 D(3,4,7,5)       =         1.050911	      60.212758
	 D(3,4,7,6)       =         3.133546	     179.538962
	 D(3,4,7,10)      =        -1.048880	     -60.096392
	 D(4,7,10,8)      =         2.275510	     130.377133
	 D(4,7,10,9)      =        -1.923732	    -110.221732
	 D(4,7,10,14)     =         0.176566	      10.116493
	 D(5,7,10,8)      =         0.176327	      10.102768
	 D(5,7,10,9)      =         2.260269	     129.503903
	 D(5,7,10,14)     =        -1.922618	    -110.157872
	 D(6,7,10,8)      =        -1.907676	    -109.301804
	 D(6,7,10,9)      =         0.176267	      10.099330
	 D(6,7,10,14)     =         2.276565	     130.437556
	 D(7,10,14,11)    =         3.140792	     179.954138
	 D(7,10,14,12)    =         1.047611	      60.023671
	 D(7,10,14,13)    =        -1.048354	     -60.066256
	 D(8,10,14,11)    =         1.040549	      59.619073
	 D(8,10,14,12)    =        -1.052632	     -60.311394
	 D(8,10,14,13)    =         3.134588	     179.598679
	 D(9,10,14,11)    =        -1.041159	     -59.654045
	 D(9,10,14,12)    =        -3.134341	    -179.584512
	 D(9,10,14,13)    =         1.052880	      60.325562

	Current energy   :      -158.1491867516

	Energy change for the previous step:
		Projected    :        -0.0114882169
		Actual       :        -0.0075431264

	Performing BFGS update.
	Previous computed or guess Hessian on step 1.
	Steps to be used in Hessian update: 1
	Adding user-defined constraint: Fragment 1; Coordinate 49:
		Value =     0.176566; Fixed value    =     0.174530
		Force =    -0.001069; Force constant =     0.525000
	Removing off-diagonal coupling between coordinate 49 and others.
	Taking RFO optimization step.
	Going to follow RFO solution 1.
	Using RFO vector 1.

	Determining step-restricting scale parameter for RS-RFO.
	Maximum step size allowed    0.10000

	 Iter      |step|        alpha        rfo_root  
	------------------------------------------------
	    0     0.17689       1.00000           1
	    1     0.13783       6.35726           1
	    2     0.11350      15.34656           1
	    3     0.10260      22.79353           1
	    4     0.10013      24.96665           1
	    5     0.10000      25.08227           1
	------------------------------------------------
	Norm of target step-size    0.10000
	Projected energy change by RFO approximation:        -0.0032571390

	Back-transformation to cartesian coordinates...
	Successfully converged to displaced geometry.

	--- Internal Coordinate Step in ANG or DEG, aJ/ANG or AJ/DEG ---
	 ---------------------------------------------------------------------------
	   Coordinate                Previous        Force       Change         New 
	   ----------                --------       ------       ------       ------
	    1 R(1,4)          =      1.073665     0.066166     0.010439     1.084105
	    2 R(2,4)          =      1.077662     0.053398     0.007658     1.085319
	    3 R(3,4)          =      1.072546     0.062496     0.010492     1.083038
	    4 R(4,7)          =      1.542461    -0.049925    -0.010877     1.531584
	    5 R(5,7)          =      1.074993     0.069459     0.010017     1.085011
	    6 R(6,7)          =      1.074646     0.069434     0.010017     1.084663
	    7 R(7,10)         =      1.553025     0.049211    -0.001200     1.551825
	    8 R(8,10)         =      1.074744     0.069117     0.009973     1.084717
	    9 R(9,10)         =      1.074704     0.071179     0.010254     1.084957
	   10 R(10,14)        =      1.541462    -0.046384    -0.010221     1.531241
	   11 R(11,14)        =      1.076472     0.060188     0.008602     1.085074
	   12 R(12,14)        =      1.074005     0.064515     0.010212     1.084217
	   13 R(13,14)        =      1.073698     0.056217     0.009629     1.083328
	   14 B(1,4,2)        =    109.246025    -0.000245    -0.678563   108.567463
	   15 B(1,4,3)        =    109.261767    -0.000224    -0.714703   108.547065
	   16 B(1,4,7)        =    109.754103     0.000302     0.874416   110.628518
	   17 B(2,4,3)        =    109.227583    -0.000237    -0.609708   108.617875
	   18 B(2,4,7)        =    109.439289     0.000073     0.278622   109.717910
	   19 B(3,4,7)        =    109.895344     0.000325     0.809085   110.704429
	   20 B(4,7,5)        =    108.571698    -0.000424    -0.401858   108.169840
	   21 B(4,7,6)        =    108.590477    -0.000463    -0.349692   108.240785
	   22 B(4,7,10)       =    112.571933     0.001520     1.478246   114.050179
	   23 B(5,7,6)        =    109.786455     0.000044    -0.715376   109.071080
	   24 B(5,7,10)       =    108.632070    -0.000345    -0.022212   108.609859
	   25 B(6,7,10)       =    108.666160    -0.000345    -0.055078   108.611082
	   26 B(7,10,8)       =    108.664071    -0.000346    -0.048009   108.616062
	   27 B(7,10,9)       =    108.680746    -0.000349    -0.050956   108.629790
	   28 B(7,10,14)      =    112.588981     0.001519     1.472767   114.061748
	   29 B(8,10,9)       =    109.761221     0.000045    -0.712550   109.048671
	   30 B(8,10,14)      =    108.534848    -0.000458    -0.332049   108.202799
	   31 B(9,10,14)      =    108.587632    -0.000424    -0.395778   108.191854
	   32 B(10,14,11)     =    109.501119     0.000068     0.259644   109.760763
	   33 B(10,14,12)     =    109.797909     0.000294     0.846139   110.644048
	   34 B(10,14,13)     =    109.943785     0.000318     0.786150   110.729935
	   35 B(11,14,12)     =    109.235949    -0.000241    -0.667037   108.568912
	   36 B(11,14,13)     =    109.202704    -0.000232    -0.594887   108.607817
	   37 B(12,14,13)     =    109.141567    -0.000214    -0.671859   108.469709
	   38 D(1,4,7,5)      =   -179.606789     0.000068     0.757188  -178.849601
	   39 D(1,4,7,6)      =    -60.280584    -0.000037    -0.518560   -60.799144
	   40 D(1,4,7,10)     =     60.084062     0.000013     0.117811    60.201873
	   41 D(2,4,7,5)      =    -59.729092     0.000052     0.638089   -59.091003
	   42 D(2,4,7,6)      =     59.597112    -0.000053    -0.637658    58.959454
[...]
  CGR           6          0          1   3.035E-05
  CGR           7          0          1   5.231E-06
  CGR           8          0          1   1.140E-06
  CGR           9          1          0   1.539E-07

    CGRSolver converged.

  ==> DFCorrGrad: Density-Fitted Correlated Gradients <==

    OpenMP threads:              1
    Integrals threads:           1
    Memory (MB):               715
    Schwarz Cutoff:          0E+00
    Fitting Condition:       1E-12

   => Auxiliary Basis Set <=

  Basis Set: (AUG-CC-PVTZ AUX)
    Blend: AUG-CC-PVTZ-JKFIT
    Number of shells: 260
    Number of basis function: 876
    Number of Cartesian functions: 1074
    Spherical Harmonics?: true
    Max angular momentum: 4

	-----------------------------------------------------------
	 ==================> DF-MP2 Energies <==================== 
	-----------------------------------------------------------
	 Reference Energy          =    -157.3467955306087163 [Eh]
	 Singles Energy            =      -0.0000000000000000 [Eh]
	 Same-Spin Energy          =      -0.1657528556593130 [Eh]
	 Opposite-Spin Energy      =      -0.6406786707547737 [Eh]
	 Correlation Energy        =      -0.8064315264140867 [Eh]
	 Total Energy              =    -158.1532270570228036 [Eh]
	-----------------------------------------------------------
	 ================> DF-SCS-MP2 Energies <================== 
	-----------------------------------------------------------
	 SCS Same-Spin Scale       =       0.3333333333333333 [-]
	 SCS Opposite-Spin Scale   =       1.2000000000000000 [-]
	 SCS Same-Spin Energy      =      -0.0552509518864377 [Eh]
	 SCS Opposite-Spin Energy  =      -0.7688144049057284 [Eh]
	 SCS Correlation Energy    =      -0.8240653567921661 [Eh]
	 SCS Total Energy          =    -158.1708608874008917 [Eh]
	-----------------------------------------------------------


  -Total Gradient:
     Atom            X                  Y                   Z
    ------   -----------------  -----------------  -----------------
       1        0.000013046859    -0.000004989917    -0.000014330556
       2       -0.000002672739     0.000026555380     0.000003569976
       3       -0.000002869008    -0.000010747954    -0.000000430295
       4       -0.000215111325    -0.000214830185     0.002771688440
       5       -0.000036234212    -0.000007980611     0.000024837937
       6       -0.000015811473     0.000010388202    -0.000018253932
       7        0.000655037089     0.000389133421    -0.005116012272
       8       -0.000011890689    -0.000016565104     0.000014113922
       9       -0.000018500304    -0.000014413645    -0.000035652293
      10       -0.001017911158    -0.000534897438     0.005044285363
      11        0.000017281080    -0.000021597049    -0.000001046670
      12        0.000000946453     0.000008545927     0.000014996194
      13       -0.000009034411     0.000008226820    -0.000000887695
      14        0.000643723840     0.000383172147    -0.002686878120


*** tstop() called on gpu-1-9.local at Wed Jun 14 15:17:05 2017
Module time:
	user time   =     438.58 seconds =       7.31 minutes
	system time =       3.41 seconds =       0.06 minutes
	total time  =        442 seconds =       7.37 minutes
Total time:
	user time   =    3267.69 seconds =      54.46 minutes
	system time =      29.97 seconds =       0.50 minutes
	total time  =       3301 seconds =      55.02 minutes

			-----------------------------------------
			 OPTKING 2.0: for geometry optimizations 
			  - R.A. King,  Bethel University        
			-----------------------------------------

	Previous internal coordinate definitions found.
	---Fragment 1 Geometry and Gradient---
	 H           1.4799735663        3.0419189738       -1.5008751149
	 H          -0.7830501554        4.8060154640        0.1614736338
	 H           1.2694461114        2.7818395255        1.8034380914
	 C           0.1695953420        2.9861431564        0.0820516597
	 H          -3.0644999433        1.0102302469        1.3876078106
	 H          -2.8839339496        1.2116859236       -1.8851305519
	 C          -1.7568991088        0.8738158640       -0.1977620343
	 H          -1.7754096769       -3.0468537953        0.9504786728
	 H          -0.9312166335       -2.5840725705       -2.1891569464
	 C          -0.6730943885       -1.8309393191       -0.2896897160
	 H           2.6943952092       -4.0531610597        0.2215572365
	 H           2.4970537089       -1.4757866394        2.2987856350
	 H           3.2929725844       -0.9844857830       -0.8879779830
	 C           2.1095829493       -2.0884251320        0.3751485018
	             0.0000130469       -0.0000049899       -0.0000143306
	            -0.0000026727        0.0000265554        0.0000035700
	            -0.0000028690       -0.0000107480       -0.0000004303
	            -0.0002151113       -0.0002148302        0.0027716884
	            -0.0000362342       -0.0000079806        0.0000248379
	            -0.0000158115        0.0000103882       -0.0000182539
	             0.0006550371        0.0003891334       -0.0051160123
	            -0.0000118907       -0.0000165651        0.0000141139
	            -0.0000185003       -0.0000144136       -0.0000356523
	            -0.0010179112       -0.0005348974        0.0050442854
	             0.0000172811       -0.0000215970       -0.0000010467
	             0.0000009465        0.0000085459        0.0000149962
	            -0.0000090344        0.0000082268       -0.0000008877
	             0.0006437238        0.0003831721       -0.0026868781

	---Fragment 1 Intrafragment Coordinates---
	 - Coordinate -           - BOHR/RAD -       - ANG/DEG -
	 R(1,4)           =         2.055689	       1.087824
	 R(2,4)           =         2.055669	       1.087813
	 R(3,4)           =         2.052945	       1.086372
	 R(4,7)           =         2.872560	       1.520093
	 R(5,7)           =         2.059569	       1.089877
	 R(6,7)           =         2.057080	       1.088560
	 R(7,10)          =         2.915267	       1.542693
	 R(8,10)          =         2.057077	       1.088558
	 R(9,10)          =         2.059566	       1.089875
	 R(10,14)         =         2.872560	       1.520093
	 R(11,14)         =         2.055671	       1.087814
	 R(12,14)         =         2.055685	       1.087821
	 R(13,14)         =         2.052945	       1.086372
	 B(1,4,2)         =         1.876679	     107.525766
	 B(1,4,3)         =         1.882685	     107.869923
	 B(1,4,7)         =         1.952440	     111.866554
	 B(2,4,3)         =         1.879666	     107.696943
	 B(2,4,7)         =         1.921932	     110.118607
	 B(3,4,7)         =         1.947434	     111.579735
	 B(4,7,5)         =         1.877697	     107.584086
	 B(4,7,6)         =         1.903460	     109.060239
	 B(4,7,10)        =         2.021935	     115.848336
	 B(5,7,6)         =         1.846983	     105.824343
	 B(5,7,10)        =         1.898381	     108.769202
	 B(6,7,10)        =         1.907318	     109.281290
	 B(7,10,8)        =         1.907288	     109.279547
	 B(7,10,9)        =         1.898383	     108.769332
	 B(7,10,14)       =         2.021947	     115.849029
	 B(8,10,9)        =         1.847004	     105.825521
	 B(8,10,14)       =         1.903481	     109.061423
	 B(9,10,14)       =         1.877673	     107.582720
	 B(10,14,11)      =         1.921932	     110.118583
	 B(10,14,12)      =         1.952448	     111.867021
	 B(10,14,13)      =         1.947434	     111.579743
	 B(11,14,12)      =         1.876676	     107.525636
	 B(11,14,13)      =         1.879672	     107.697286
	 B(12,14,13)      =         1.882673	     107.869242
	 D(1,4,7,5)       =        -3.082008	    -176.586062
	 D(1,4,7,6)       =        -1.086408	     -62.246585
	 D(1,4,7,10)      =         1.073450	      61.504171
	 D(2,4,7,5)       =        -0.996166	     -57.076085
	 D(2,4,7,6)       =         0.999435	      57.263392
	 D(2,4,7,10)      =        -3.123892	    -178.985852
	 D(3,4,7,5)       =         1.090192	      62.463380
	 D(3,4,7,6)       =         3.085792	     176.802856
	 D(3,4,7,10)      =        -1.037535	     -59.446387
	 D(4,7,10,8)      =         2.340798	     134.117854
	 D(4,7,10,9)      =        -1.933724	    -110.794203
	 D(4,7,10,14)     =         0.182940	      10.481685
	 D(5,7,10,8)      =         0.224113	      12.840757
	 D(5,7,10,9)      =         2.232777	     127.928700
	 D(5,7,10,14)     =        -1.933745	    -110.795412
	 D(6,7,10,8)      =        -1.784541	    -102.246653
	 D(6,7,10,9)      =         0.224123	      12.841289
	 D(6,7,10,14)     =         2.340786	     134.117177
	 D(7,10,14,11)    =        -3.123697	    -178.974660
	 D(7,10,14,12)    =         1.073643	      61.515240
	 D(7,10,14,13)    =        -1.037333	     -59.434776
	 D(8,10,14,11)    =         0.999645	      57.275434
	 D(8,10,14,12)    =        -1.086200	     -62.234666
	 D(8,10,14,13)    =         3.086009	     176.815318
	 D(9,10,14,11)    =        -0.995977	     -57.065306
	 D(9,10,14,12)    =        -3.081822	    -176.575407
	 D(9,10,14,13)    =         1.090387	      62.474578

	Current energy   :      -158.1532270570

	Energy change for the previous step:
		Projected    :         0.0000029863
		Actual       :        -0.0000047926

	Performing BFGS update.
	Previous computed or guess Hessian on step 1.
	Steps to be used in Hessian update: 6 5
	Adding user-defined constraint: Fragment 1; Coordinate 49:
		Value =     0.182940; Fixed value    =     0.174530
		Force =    -0.005466; Force constant =     0.650000
	Removing off-diagonal coupling between coordinate 49 and others.
	Taking RFO optimization step.
	Going to follow RFO solution 1.
	Rejecting RFO root 1 because normalization gives large value.
	Using RFO vector 2.
	Norm of target step-size    0.00157
	Projected energy change by RFO approximation:         0.0000000138

	Back-transformation to cartesian coordinates...
	Successfully converged to displaced geometry.

	--- Internal Coordinate Step in ANG or DEG, aJ/ANG or AJ/DEG ---
	 ---------------------------------------------------------------------------
	   Coordinate                Previous        Force       Change         New 
	   ----------                --------       ------       ------       ------
	    1 R(1,4)          =      1.087824    -0.000158    -0.000015     1.087809
	    2 R(2,4)          =      1.087813    -0.000205    -0.000025     1.087788
	    3 R(3,4)          =      1.086372     0.000007     0.000026     1.086397
	    4 R(4,7)          =      1.520093     0.000168    -0.000034     1.520059
	    5 R(5,7)          =      1.089877    -0.000343    -0.000074     1.089804
	    6 R(6,7)          =      1.088560    -0.000209    -0.000021     1.088538
	    7 R(7,10)         =      1.542693     0.000388     0.000045     1.542738
	    8 R(8,10)         =      1.088558    -0.000203    -0.000020     1.088538
	    9 R(9,10)         =      1.089875    -0.000333    -0.000072     1.089803
	   10 R(10,14)        =      1.520093     0.000167    -0.000027     1.520067
	   11 R(11,14)        =      1.087814    -0.000211    -0.000025     1.087789
	   12 R(12,14)        =      1.087821    -0.000138    -0.000012     1.087810
	   13 R(13,14)        =      1.086372     0.000002     0.000023     1.086394
	   14 B(1,4,2)        =    107.525766     0.000000    -0.004651   107.521115
	   15 B(1,4,3)        =    107.869923    -0.000000    -0.004596   107.865327
	   16 B(1,4,7)        =    111.866554     0.000000     0.000563   111.867117
	   17 B(2,4,3)        =    107.696943    -0.000000    -0.004045   107.692897
	   18 B(2,4,7)        =    110.118607    -0.000002    -0.002989   110.115618
	   19 B(3,4,7)        =    111.579735     0.000001     0.014846   111.594582
	   20 B(4,7,5)        =    107.584086    -0.000010    -0.009254   107.574832
	   21 B(4,7,6)        =    109.060239     0.000006     0.004196   109.064434
	   22 B(4,7,10)       =    115.848336     0.000005     0.001553   115.849889
	   23 B(5,7,6)        =    105.824343     0.000001    -0.000435   105.823908
	   24 B(5,7,10)       =    108.769202    -0.000001     0.002187   108.771389
	   25 B(6,7,10)       =    109.281290    -0.000002     0.001412   109.282702
	   26 B(7,10,8)       =    109.279547    -0.000002     0.001927   109.281473
	   27 B(7,10,9)       =    108.769332    -0.000001     0.002438   108.771770
	   28 B(7,10,14)      =    115.849029     0.000004     0.000808   115.849837
	   29 B(8,10,9)       =    105.825521     0.000001    -0.001480   105.824041
	   30 B(8,10,14)      =    109.061423     0.000006     0.002949   109.064372
	   31 B(9,10,14)      =    107.582720    -0.000009    -0.007000   107.575719
	   32 B(10,14,11)     =    110.118583    -0.000002    -0.002694   110.115889
	   33 B(10,14,12)     =    111.867021     0.000000    -0.000435   111.866586
	   34 B(10,14,13)     =    111.579743     0.000001     0.015040   111.594783
	   35 B(11,14,12)     =    107.525636     0.000000    -0.004267   107.521370
	   36 B(11,14,13)     =    107.697286    -0.000000    -0.004768   107.692517
	   37 B(12,14,13)     =    107.869242    -0.000000    -0.003728   107.865513
	   38 D(1,4,7,5)      =   -176.586062    -0.000000     0.008525  -176.577537
	   39 D(1,4,7,6)      =    -62.246585    -0.000000     0.005294   -62.241291
	   40 D(1,4,7,10)     =     61.504171     0.000001     0.011740    61.515912
	   41 D(2,4,7,5)      =    -57.076085    -0.000000     0.001043   -57.075042
	   42 D(2,4,7,6)      =     57.263392    -0.000001    -0.002188    57.261204
	   43 D(2,4,7,10)     =   -178.985852     0.000001     0.004259  -178.981593
	   44 D(3,4,7,5)      =     62.463380    -0.000000     0.003570    62.466950
	   45 D(3,4,7,6)      =    176.802856    -0.000001     0.000339   176.803195
	   46 D(3,4,7,10)     =    -59.446387     0.000001     0.006785   -59.439601
	   47 D(4,7,10,8)     =    134.117854    -0.000002     0.006680   134.124534
	   48 D(4,7,10,9)     =   -110.794203    -0.000002     0.007289  -110.786915
	   49 D(4,7,10,14)    =     10.481685    -0.000004     0.000569    10.482254
	   50 D(5,7,10,8)     =     12.840757     0.000000     0.016027    12.856785
	   51 D(5,7,10,9)     =    127.928700     0.000000     0.016636   127.945336
	   52 D(5,7,10,14)    =   -110.795412    -0.000002     0.009917  -110.785496
	   53 D(6,7,10,8)     =   -102.246653     0.000000     0.014591  -102.232063
	   54 D(6,7,10,9)     =     12.841289     0.000000     0.015199    12.856489
	   55 D(6,7,10,14)    =    134.117177    -0.000002     0.008480   134.125657
	   56 D(7,10,14,11)   =   -178.974660     0.000001    -0.025343  -179.000003
	   57 D(7,10,14,12)   =     61.515240     0.000001    -0.017896    61.497344
	   58 D(7,10,14,13)   =    -59.434776     0.000001    -0.023403   -59.458178
	   59 D(8,10,14,11)   =     57.275434    -0.000001    -0.030911    57.244523
	   60 D(8,10,14,12)   =    -62.234666    -0.000000    -0.023464   -62.258130
	   61 D(8,10,14,13)   =    176.815318    -0.000001    -0.028971   176.786348
	   62 D(9,10,14,11)   =    -57.065306    -0.000000    -0.027005   -57.092311
	   63 D(9,10,14,12)   =   -176.575407    -0.000000    -0.019558  -176.594964
	   64 D(9,10,14,13)   =     62.474578    -0.000000    -0.025065    62.449513
	 ---------------------------------------------------------------------------
	Successfully symmetrized geometry.
	 Forces used to impose fixed constraints are not included.
	  Forces zeroed: 49 

  ==> Convergence Check <==

  Measures of convergence in internal coordinates in au.
  Criteria marked as inactive (o), active & met (*), and active & unmet ( ).
  ---------------------------------------------------------------------------------------------
   Step     Total Energy     Delta E     MAX Force     RMS Force      MAX Disp      RMS Disp   
  ---------------------------------------------------------------------------------------------
    Convergence Criteria    1.00e-06 *    3.00e-04 *             o    1.20e-03 *             o
  ---------------------------------------------------------------------------------------------
      7    -158.15322706   -4.79e-06      1.26e-04 *    4.74e-05 o    5.39e-04 *    1.97e-04 o  ~
  ---------------------------------------------------------------------------------------------


  **** Optimization is complete! (in 7 steps) ****

  ==> Optimization Summary <==

  Measures of convergence in internal coordinates in au.
  --------------------------------------------------------------------------------------------------------------- ~
   Step         Total Energy             Delta E       MAX Force       RMS Force        MAX Disp        RMS Disp  ~
  --------------------------------------------------------------------------------------------------------------- ~
      1    -158.141643625268   -158.141643625268      0.06156831      0.01442505      0.05384717      0.01261606  ~
      2    -158.149186751641     -0.007543126373      0.01997353      0.00564256      0.02580026      0.01254598  ~
      3    -158.151962073577     -0.002775321936      0.00882916      0.00234367      0.03774098      0.01251362  ~
      4    -158.152917405352     -0.000955331775      0.00394137      0.00100866      0.04842717      0.01249584  ~
      5    -158.153209048124     -0.000291642772      0.00110811      0.00026263      0.01316363      0.00358087  ~
      6    -158.153222264409     -0.000013216285      0.00035843      0.00009513      0.00386022      0.00123711  ~
      7    -158.153227057023     -0.000004792613      0.00025051      0.00005679      0.00053950      0.00019679  ~
  --------------------------------------------------------------------------------------------------------------- ~

	Writing optimization data to binary file.
	Final energy is   -158.1532270570228
	Final (previous) structure:
	Cartesian Geometry (in Angstrom)
	    H     0.7831682806   1.6097141913  -0.7942289038
	    H    -0.4143722954   2.5432338477   0.0854481668
	    H     0.6717619497   1.4720860749   0.9543383351
	    C     0.0897459897   1.5801989000   0.0434198683
	    H    -1.6216635257   0.5345908221   0.7342904278
	    H    -1.5261121172   0.6411965747  -0.9975681233
	    C    -0.9297109662   0.4624034398  -0.1046511613
	    H    -0.9395063369  -1.6123255864   0.5029716509
	    H    -0.4927786187  -1.3674323096  -1.1584519621
	    C    -0.3561862096  -0.9688913580  -0.1532971953
	    H     1.4258125357  -2.1448404556   0.1172430400
	    H     1.3213839114  -0.7809526543   1.2164649655
	    H     1.7425660402  -0.5209674385  -0.4698977104
	    C     1.1163432164  -1.1051469817   0.1985200370
	Saving final (previous) structure.
			--------------------------
			 OPTKING Finished Execution 
			--------------------------

    Final optimized geometry and variables:
    Molecular point group: c1
    Full point group: C1

    Geometry (in Angstrom), charge = 0, multiplicity = 1:

    H            0.783168280619     1.609714191320    -0.794228903758
    H           -0.414372295407     2.543233847666     0.085448166794
    H            0.671761949692     1.472086074857     0.954338335078
    C            0.089745989684     1.580198899966     0.043419868263
    H           -1.621663525739     0.534590822110     0.734290427834
    H           -1.526112117194     0.641196574734    -0.997568123277
    C           -0.929710966183     0.462403439759    -0.104651161270
    H           -0.939506336923    -1.612325586389     0.502971650878
    H           -0.492778618734    -1.367432309639    -1.158451962074
    C           -0.356186209643    -0.968891357984    -0.153297195253
    H            1.425812535657    -2.144840455560     0.117243039970
    H            1.321383911395    -0.780952654332     1.216464965465
    H            1.742566040161    -0.520967438520    -0.469897710354
    C            1.116343216382    -1.105146981720     0.198520037007

	Cleaning optimization helper files.

*** Psi4 exiting successfully. Buy a developer a beer!
