
    -----------------------------------------------------------------------
          Psi4: An Open-Source Ab Initio Electronic Structure Package
                               Psi4 1.1 release

                         Git: Rev {HEAD} add49b9 


    R. M. Parrish, L. A. Burns, D. G. A. Smith, A. C. Simmonett,
    A. E. DePrince III, E. G. Hohenstein, U. Bozkaya, A. Yu. Sokolov,
    R. Di Remigio, R. M. Richard, J. F. Gonthier, A. M. James,
    H. R. McAlexander, A. Kumar, M. Saitow, X. Wang, B. P. Pritchard,
    P. Verma, H. F. Schaefer III, K. Patkowski, R. A. King, E. F. Valeev,
    F. A. Evangelista, J. M. Turney, T. D. Crawford, and C. D. Sherrill,
    J. Chem. Theory Comput. in press (2017).
    (doi: 10.1021/acs.jctc.7b00174)

    -----------------------------------------------------------------------


    Psi4 started on: Wednesday, 14 June 2017 02:19PM

    Process ID:  25648
    PSIDATADIR: /cbio/jclab/home/chayas/anaconda/envs/py35/share/psi4
    Memory:     500.0 MiB
    Threads:    1
    
  ==> Input File <==

--------------------------------------------------------------------------

memory 5000 mb

molecule butane {
  symmetry C1
  0 1 
  H      1.595   2.056   -8.294
  H      2.038   1.713   -9.949
  H      1.760   0.402   -8.829
  C      2.142   1.395   -8.932
  H      4.169   2.051   -9.210
  H      3.731   1.788   -7.539
  C      3.631   1.416   -8.537
  H      3.665   -0.647   -7.940
  H      4.104   -0.384   -9.610
  C      4.203   -0.012   -8.612
  H      6.088   -0.983   -8.270
  H      5.791   0.381   -7.220
  H      6.230   0.644   -8.890
  C      5.691   0.009   -8.218
  units Angstrom
}

dih_string = "10 7 4 3 20"
set optking fixed_dihedral = $dih_string

optimize('MP2/aug-cc-pvtz')
--------------------------------------------------------------------------

  Memory set to   4.657 GiB by Python driver.
gradient() will perform analytic gradient computation.

*** tstart() called on cpu-6-2.local
*** at Wed Jun 14 14:19:21 2017

    SCF Algorithm Type (re)set to DF.

*** tstart() called on cpu-6-2.local
*** at Wed Jun 14 14:19:21 2017

   => Loading Basis Set <=

    Name: AUG-CC-PVTZ
    Role: ORBITAL
    Keyword: BASIS
    atoms 1-3, 5-6, 8-9, 11-13 entry H          line    34 file /cbio/jclab/home/chayas/anaconda/envs/py35/share/psi4/basis/aug-cc-pvtz.gbs 
    atoms 4, 7, 10, 14         entry C          line   221 file /cbio/jclab/home/chayas/anaconda/envs/py35/share/psi4/basis/aug-cc-pvtz.gbs 


         ---------------------------------------------------------
                                   SCF
            by Justin Turney, Rob Parrish, and Andy Simmonett
                              RHF Reference
                        1 Threads,   4768 MiB Core
         ---------------------------------------------------------

  ==> Geometry <==

    Molecular point group: c1
    Full point group: C1

    Geometry (in Angstrom), charge = 0, multiplicity = 1:

       Center              X                  Y                   Z               Mass       
    ------------   -----------------  -----------------  -----------------  -----------------
           H         -2.321810735087     1.353982647118     0.280810735087     1.007825032070
           H         -1.878810735087     1.010982647118    -1.374189264913     1.007825032070
           H         -2.156810735087    -0.300017352882    -0.254189264913     1.007825032070
           C         -1.774810735087     0.692982647118    -0.357189264913    12.000000000000
           H          0.252189264913     1.348982647118    -0.635189264913     1.007825032070
           H         -0.185810735087     1.085982647118     1.035810735087     1.007825032070
           C         -0.285810735087     0.713982647118     0.037810735087    12.000000000000
           H         -0.251810735087    -1.349017352882     0.634810735087     1.007825032070
           H          0.187189264913    -1.086017352882    -1.035189264913     1.007825032070
           C          0.286189264913    -0.714017352882    -0.037189264913    12.000000000000
           H          2.171189264913    -1.685017352882     0.304810735087     1.007825032070
           H          1.874189264913    -0.321017352882     1.354810735087     1.007825032070
           H          2.313189264913    -0.058017352882    -0.315189264913     1.007825032070
           C          1.774189264913    -0.693017352882     0.356810735087    12.000000000000

  Running in c1 symmetry.

  Rotational constants: A =      0.76951  B =      0.12465  C =      0.11638 [cm^-1]
  Rotational constants: A =  23069.19687  B =   3736.84297  C =   3489.07644 [MHz]
  Nuclear repulsion =  131.847433615552887

  Charge       = 0
  Multiplicity = 1
  Electrons    = 34
  Nalpha       = 17
  Nbeta        = 17

  ==> Algorithm <==

  SCF Algorithm Type is DF.
  DIIS enabled.
  MOM disabled.
  Fractional occupation disabled.
  Guess Type is SAD.
  Energy threshold   = 1.00e-10
  Density threshold  = 1.00e-10
  Integral threshold = 0.00e+00

  ==> Primary Basis <==

  Basis Set: AUG-CC-PVTZ
    Blend: AUG-CC-PVTZ
    Number of shells: 146
    Number of basis function: 414
    Number of Cartesian functions: 470
    Spherical Harmonics?: true
    Max angular momentum: 3

   => Loading Basis Set <=

    Name: (AUG-CC-PVTZ AUX)
    Role: JKFIT
    Keyword: DF_BASIS_SCF
    atoms 1-3, 5-6, 8-9, 11-13 entry H          line    69 file /cbio/jclab/home/chayas/anaconda/envs/py35/share/psi4/basis/aug-cc-pvtz-jkfit.gbs 
    atoms 4, 7, 10, 14         entry C          line   161 file /cbio/jclab/home/chayas/anaconda/envs/py35/share/psi4/basis/aug-cc-pvtz-jkfit.gbs 

  ==> Pre-Iterations <==

   -------------------------------------------------------
    Irrep   Nso     Nmo     Nalpha   Nbeta   Ndocc  Nsocc
   -------------------------------------------------------
     A        414     414       0       0       0       0
   -------------------------------------------------------
    Total     414     414      17      17      17       0
   -------------------------------------------------------

  ==> Integral Setup <==

  ==> DFJK: Density-Fitted J/K Matrices <==

    J tasked:                  Yes
    K tasked:                  Yes
    wK tasked:                  No
    OpenMP threads:              1
    Integrals threads:           1
    Memory (MB):              3576
    Algorithm:                Core
    Integral Cache:           NONE
    Schwarz Cutoff:          1E-12
    Fitting Condition:       1E-12

   => Auxiliary Basis Set <=

  Basis Set: (AUG-CC-PVTZ AUX)
    Blend: AUG-CC-PVTZ-JKFIT
    Number of shells: 260
    Number of basis function: 876
    Number of Cartesian functions: 1074
    Spherical Harmonics?: true
    Max angular momentum: 4

  Minimum eigenvalue in the overlap matrix is 8.5073411769E-06.
  Using Symmetric Orthogonalization.

  SCF Guess: Superposition of Atomic Densities via on-the-fly atomic UHF.

  ==> Iterations <==

                           Total Energy        Delta E     RMS |[F,P]|

   @DF-RHF iter   0:  -159.25506322499436   -1.59255e+02   9.89483e-03 
   @DF-RHF iter   1:  -157.25253186496829    2.00253e+00   8.30534e-04 
   @DF-RHF iter   2:  -157.33969817542507   -8.71663e-02   2.44025e-04 DIIS
   @DF-RHF iter   3:  -157.34739386667897   -7.69569e-03   9.30107e-05 DIIS
   @DF-RHF iter   4:  -157.34851195426316   -1.11809e-03   2.06988e-05 DIIS
   @DF-RHF iter   5:  -157.34858823244184   -7.62782e-05   4.10641e-06 DIIS
   @DF-RHF iter   6:  -157.34859206908459   -3.83664e-06   9.49819e-07 DIIS
   @DF-RHF iter   7:  -157.34859225465237   -1.85568e-07   2.23393e-07 DIIS
   @DF-RHF iter   8:  -157.34859226374166   -9.08929e-09   5.88972e-08 DIIS
   @DF-RHF iter   9:  -157.34859226439278   -6.51113e-10   1.39648e-08 DIIS
   @DF-RHF iter  10:  -157.34859226443456   -4.17799e-11   3.01842e-09 DIIS
   @DF-RHF iter  11:  -157.34859226443467   -1.13687e-13   7.88240e-10 DIIS
   @DF-RHF iter  12:  -157.34859226443655   -1.87583e-12   2.07487e-10 DIIS
   @DF-RHF iter  13:  -157.34859226443726   -7.10543e-13   6.07976e-11 DIIS

  ==> Post-Iterations <==

    Orbital Energies (a.u.)
    -----------------------

    Doubly Occupied:                                                      

       1A    -11.207231     2A    -11.205693     3A    -11.198291  
       4A    -11.197234     5A     -1.070731     6A     -0.980997  
       7A     -0.861280     8A     -0.795468     9A     -0.646561  
      10A     -0.587572    11A     -0.576936    12A     -0.571624  
      13A     -0.512391    14A     -0.504337    15A     -0.472702  
      16A     -0.469144    17A     -0.440710  

    Virtual:                                                              

      18A      0.032332    19A      0.037672    20A      0.039407  
      21A      0.040382    22A      0.058165    23A      0.058858  
      24A      0.060261    25A      0.060934    26A      0.077978  
      27A      0.083074    28A      0.102289    29A      0.112752  
      30A      0.122658    31A      0.130486    32A      0.138498  
      33A      0.142139    34A      0.142303    35A      0.145316  
      36A      0.148344    37A      0.160813    38A      0.165963  
      39A      0.166278    40A      0.172389    41A      0.200092  
      42A      0.202054    43A      0.215311    44A      0.226708  
      45A      0.242170    46A      0.250427    47A      0.254851  
      48A      0.267317    49A      0.279834    50A      0.283302  
      51A      0.289009    52A      0.311418    53A      0.318842  
      54A      0.331529    55A      0.339190    56A      0.346598  
      57A      0.357744    58A      0.358501    59A      0.359141  
      60A      0.367648    61A      0.369110    62A      0.371502  
      63A      0.382503    64A      0.387505    65A      0.390284  
      66A      0.391397    67A      0.397385    68A      0.400383  
      69A      0.405398    70A      0.410233    71A      0.416642  
      72A      0.430934    73A      0.443655    74A      0.446631  
      75A      0.448926    76A      0.462588    77A      0.462787  
      78A      0.465214    79A      0.471001    80A      0.486427  
      81A      0.490352    82A      0.500410    83A      0.503155  
      84A      0.508969    85A      0.517272    86A      0.518601  
      87A      0.524037    88A      0.529929    89A      0.540934  
      90A      0.543718    91A      0.547921    92A      0.556186  
      93A      0.567467    94A      0.574770    95A      0.580318  
      96A      0.588866    97A      0.599482    98A      0.612853  
      99A      0.614228   100A      0.634413   101A      0.641749  
     102A      0.655886   103A      0.678430   104A      0.680591  
     105A      0.696938   106A      0.722392   107A      0.757553  
     108A      0.773615   109A      0.798326   110A      0.811715  
     111A      0.821619   112A      0.828430   113A      0.835623  
     114A      0.842272   115A      0.847602   116A      0.861604  
     117A      0.865344   118A      0.879711   119A      0.880627  
     120A      0.889024   121A      0.895216   122A      0.902054  
     123A      0.916833   124A      0.921639   125A      0.923968  
     126A      0.928935   127A      0.933468   128A      0.937758  
     129A      0.947612   130A      0.957951   131A      0.964448  
     132A      0.976170   133A      0.981941   134A      0.991777  
     135A      0.997281   136A      1.016313   137A      1.029818  
     138A      1.033555   139A      1.045823   140A      1.071868  
     141A      1.078602   142A      1.080497   143A      1.089792  
     144A      1.095978   145A      1.104076   146A      1.111505  
     147A      1.120708   148A      1.137412   149A      1.152517  
     150A      1.156157   151A      1.162122   152A      1.172785  
     153A      1.180713   154A      1.198179   155A      1.213329  
     156A      1.219780   157A      1.229059   158A      1.242842  
     159A      1.245028   160A      1.248948   161A      1.260950  
     162A      1.270004   163A      1.274963   164A      1.288269  
     165A      1.296276   166A      1.309707   167A      1.313885  
     168A      1.323658   169A      1.339697   170A      1.357290  
     171A      1.370188   172A      1.392150   173A      1.414459  
     174A      1.418921   175A      1.433811   176A      1.442215  
     177A      1.458232   178A      1.479830   179A      1.491920  
     180A      1.504474   181A      1.522769   182A      1.527854  
     183A      1.542783   184A      1.556573   185A      1.570003  
     186A      1.585028   187A      1.603956   188A      1.608287  
     189A      1.630718   190A      1.643964   191A      1.650813  
     192A      1.667933   193A      1.683456   194A      1.689648  
     195A      1.700270   196A      1.702311   197A      1.713078  
     198A      1.717434   199A      1.729144   200A      1.735469  
     201A      1.740021   202A      1.756395   203A      1.762030  
     204A      1.767776   205A      1.776779   206A      1.780714  
     207A      1.787997   208A      1.810855   209A      1.822562  
     210A      1.849354   211A      1.860882   212A      1.884076  
     213A      1.898854   214A      1.912303   215A      1.924662  
     216A      1.941252   217A      1.967757   218A      1.969816  
     219A      1.992725   220A      2.002178   221A      2.007514  
     222A      2.025257   223A      2.031043   224A      2.038264  
     225A      2.056955   226A      2.060919   227A      2.081068  
     228A      2.089915   229A      2.102214   230A      2.162068  
     231A      2.175001   232A      2.187263   233A      2.197018  
     234A      2.211929   235A      2.238555   236A      2.261446  
     237A      2.270362   238A      2.286018   239A      2.303798  
     240A      2.310581   241A      2.328786   242A      2.338552  
     243A      2.349148   244A      2.360506   245A      2.372724  
     246A      2.386412   247A      2.415144   248A      2.445737  
     249A      2.461557   250A      2.473086   251A      2.505431  
     252A      2.541989   253A      2.594234   254A      2.612164  
     255A      2.621279   256A      2.670528   257A      2.784049  
     258A      2.882049   259A      2.960776   260A      3.026642  
     261A      3.204388   262A      3.249863   263A      3.297000  
     264A      3.360561   265A      3.395617   266A      3.425415  
     267A      3.440377   268A      3.461073   269A      3.473798  
     270A      3.487191   271A      3.523840   272A      3.560204  
     273A      3.569309   274A      3.581030   275A      3.594103  
     276A      3.603220   277A      3.623332   278A      3.669590  
     279A      3.682170   280A      3.691169   281A      3.700153  
     282A      3.714165   283A      3.727771   284A      3.743363  
     285A      3.751693   286A      3.779407   287A      3.788278  
     288A      3.796613   289A      3.828816   290A      3.838426  
     291A      3.847406   292A      3.869562   293A      3.881865  
     294A      3.890412   295A      3.914730   296A      3.920562  
     297A      3.961927   298A      3.976135   299A      3.984586  
     300A      3.987886   301A      4.010839   302A      4.014439  
     303A      4.030331   304A      4.037910   305A      4.052267  
     306A      4.065436   307A      4.083714   308A      4.094256  
     309A      4.152603   310A      4.174444   311A      4.187804  
     312A      4.197489   313A      4.237561   314A      4.245202  
     315A      4.252348   316A      4.273135   317A      4.286335  
     318A      4.300252   319A      4.320851   320A      4.331639  
     321A      4.347951   322A      4.377308   323A      4.383904  
     324A      4.422314   325A      4.454476   326A      4.471763  
     327A      4.523975   328A      4.540234   329A      4.565533  
     330A      4.584504   331A      4.610891   332A      4.658765  
     333A      4.669042   334A      4.684209   335A      4.716401  
     336A      4.720673   337A      4.744944   338A      4.754752  
     339A      4.772205   340A      4.795111   341A      4.814132  
     342A      4.871532   343A      4.872386   344A      4.887212  
     345A      4.900597   346A      4.942745   347A      4.951081  
     348A      4.963968   349A      4.990639   350A      5.006340  
     351A      5.038952   352A      5.058170   353A      5.072585  
     354A      5.113178   355A      5.138932   356A      5.152271  
     357A      5.185780   358A      5.192262   359A      5.223135  
     360A      5.251190   361A      5.255834   362A      5.276282  
     363A      5.306102   364A      5.310628   365A      5.327778  
     366A      5.350700   367A      5.372972   368A      5.396552  
     369A      5.440613   370A      5.459747   371A      5.465288  
     372A      5.472254   373A      5.503678   374A      5.529346  
     375A      5.577179   376A      5.596129   377A      5.607178  
     378A      5.656526   379A      5.663656   380A      5.688115  
     381A      5.705955   382A      5.748393   383A      5.762360  
     384A      5.803129   385A      5.814411   386A      5.856185  
     387A      5.895775   388A      5.938428   389A      5.976876  
     390A      6.026063   391A      6.109855   392A      6.145651  
     393A      6.168949   394A      6.204846   395A      6.229560  
     396A      6.257097   397A      6.272154   398A      6.336511  
     399A      6.344260   400A      6.373888   401A      6.392835  
     402A      6.488143   403A      6.561083   404A      6.622501  
     405A      6.748347   406A      6.782494   407A      6.830975  
     408A      6.853067   409A      6.869626   410A      6.981716  
     411A     18.165627   412A     18.239104   413A     18.897608  
     414A     19.610348  

    Final Occupation by Irrep:
              A 
    DOCC [    17 ]

  Energy converged.

  @DF-RHF Final Energy:  -157.34859226443726

   => Energetics <=

    Nuclear Repulsion Energy =            131.8474336155528874
    One-Electron Energy =                -471.7942467110069060
    Two-Electron Energy =                 182.5982208310167323
    DFT Exchange-Correlation Energy =       0.0000000000000000
    Empirical Dispersion Energy =           0.0000000000000000
    PCM Polarization Energy =               0.0000000000000000
    EFP Energy =                            0.0000000000000000
    Total Energy =                       -157.3485922644372579



Properties will be evaluated at   0.000000,   0.000000,   0.000000 Bohr

Properties computed using the SCF density matrix

  Nuclear Dipole Moment: (a.u.)
     X:     0.0027      Y:     0.0008      Z:    -0.0027

  Electronic Dipole Moment: (a.u.)
     X:    -0.0022      Y:    -0.0008      Z:     0.0018

  Dipole Moment: (a.u.)
     X:     0.0005      Y:    -0.0000      Z:    -0.0009     Total:     0.0010

  Dipole Moment: (Debye)
     X:     0.0012      Y:    -0.0001      Z:    -0.0022     Total:     0.0025


*** tstop() called on cpu-6-2.local at Wed Jun 14 14:20:37 2017
Module time:
	user time   =      75.04 seconds =       1.25 minutes
	system time =       0.57 seconds =       0.01 minutes
	total time  =         76 seconds =       1.27 minutes
Total time:
	user time   =      75.05 seconds =       1.25 minutes
	system time =       0.57 seconds =       0.01 minutes
	total time  =         76 seconds =       1.27 minutes

  //>>>>>>>>>>>>>>>>>>>>>>>>>>>>>>>>>>>//
  //               DFMP2               //
  //<<<<<<<<<<<<<<<<<<<<<<<<<<<<<<<<<<<//

   => Loading Basis Set <=

    Name: (AUG-CC-PVTZ AUX)
    Role: RIFIT
    Keyword: DF_BASIS_MP2
    atoms 1-3, 5-6, 8-9, 11-13 entry H          line    29 file /cbio/jclab/home/chayas/anaconda/envs/py35/share/psi4/basis/aug-cc-pvtz-ri.gbs 
    atoms 4, 7, 10, 14         entry C          line   147 file /cbio/jclab/home/chayas/anaconda/envs/py35/share/psi4/basis/aug-cc-pvtz-ri.gbs 

	 --------------------------------------------------------
	                          DF-MP2                         
	      2nd-Order Density-Fitted Moller-Plesset Theory     
	              RMP2 Wavefunction,   1 Threads             
	                                                         
	        Rob Parrish, Justin Turney, Andy Simmonett,      
	           Ed Hohenstein, and C. David Sherrill          
	 --------------------------------------------------------

   => Auxiliary Basis Set <=

  Basis Set: (AUG-CC-PVTZ AUX)
    Blend: AUG-CC-PVTZ-RI
    Number of shells: 252
    Number of basis function: 884
    Number of Cartesian functions: 1094
    Spherical Harmonics?: true
    Max angular momentum: 4

	 --------------------------------------------------------
	                 NBF =   414, NAUX =   884
	 --------------------------------------------------------
	   CLASS    FOCC     OCC    AOCC    AVIR     VIR    FVIR
	   PAIRS       0      17      17     397     397       0
	 --------------------------------------------------------


         ------------------------------------------------------------
                                     CPHF                           
                                  Rob Parrish                       
         ------------------------------------------------------------

  ==> Geometry <==

    Molecular point group: c1
    Full point group: C1

    Geometry (in Angstrom), charge = 0, multiplicity = 1:

       Center              X                  Y                   Z               Mass       
    ------------   -----------------  -----------------  -----------------  -----------------
           H         -2.321810735087     1.353982647118     0.280810735087     1.007825032070
           H         -1.878810735087     1.010982647118    -1.374189264913     1.007825032070
           H         -2.156810735087    -0.300017352882    -0.254189264913     1.007825032070
           C         -1.774810735087     0.692982647118    -0.357189264913    12.000000000000
           H          0.252189264913     1.348982647118    -0.635189264913     1.007825032070
           H         -0.185810735087     1.085982647118     1.035810735087     1.007825032070
           C         -0.285810735087     0.713982647118     0.037810735087    12.000000000000
           H         -0.251810735087    -1.349017352882     0.634810735087     1.007825032070
           H          0.187189264913    -1.086017352882    -1.035189264913     1.007825032070
           C          0.286189264913    -0.714017352882    -0.037189264913    12.000000000000
           H          2.171189264913    -1.685017352882     0.304810735087     1.007825032070
           H          1.874189264913    -0.321017352882     1.354810735087     1.007825032070
           H          2.313189264913    -0.058017352882    -0.315189264913     1.007825032070
           C          1.774189264913    -0.693017352882     0.356810735087    12.000000000000

  Nuclear repulsion =  131.847433615552887
  Reference energy  = -157.348592264437258

  ==> Basis Set <==

  Basis Set: AUG-CC-PVTZ
    Blend: AUG-CC-PVTZ
    Number of shells: 146
    Number of basis function: 414
    Number of Cartesian functions: 470
    Spherical Harmonics?: true
    Max angular momentum: 3

  ==> CGRSolver (by Rob Parrish) <==

   Number of roots    =         1
   Preconditioning    =    JACOBI
   Convergence cutoff =     1E-06
   Maximum iterations =       100

  ==> CPHFRHamiltonian (by Rob Parrish) <== 

  ==> DFJK: Density-Fitted J/K Matrices <==

    J tasked:                  Yes
    K tasked:                  Yes
    wK tasked:                  No
    OpenMP threads:              1
    Integrals threads:           1
    Memory (MB):              3576
    Algorithm:                Core
    Integral Cache:           NONE
    Schwarz Cutoff:          1E-12
    Fitting Condition:       1E-12

   => Auxiliary Basis Set <=

  Basis Set: (AUG-CC-PVTZ AUX)
    Blend: AUG-CC-PVTZ-JKFIT
    Number of shells: 260
    Number of basis function: 876
    Number of Cartesian functions: 1074
    Spherical Harmonics?: true
    Max angular momentum: 4

  ==> CPHF Iterations <==

  => Iterations <=

             Iter  Converged  Remaining    Residual
  CGR           1          0          1   8.170E-02
  CGR           2          0          1   1.312E-02
  CGR           3          0          1   3.418E-03
  CGR           4          0          1   8.058E-04
  CGR           5          0          1   1.189E-04
  CGR           6          0          1   2.163E-05
  CGR           7          0          1   4.038E-06
  CGR           8          0          1   1.023E-06
  CGR           9          1          0   2.588E-07

    CGRSolver converged.

  ==> DFCorrGrad: Density-Fitted Correlated Gradients <==

    OpenMP threads:              1
    Integrals threads:           1
    Memory (MB):              3576
    Schwarz Cutoff:          0E+00
    Fitting Condition:       1E-12

   => Auxiliary Basis Set <=

  Basis Set: (AUG-CC-PVTZ AUX)
    Blend: AUG-CC-PVTZ-JKFIT
    Number of shells: 260
    Number of basis function: 876
    Number of Cartesian functions: 1074
    Spherical Harmonics?: true
    Max angular momentum: 4

	-----------------------------------------------------------
	 ==================> DF-MP2 Energies <==================== 
	-----------------------------------------------------------
	 Reference Energy          =    -157.3485922644372579 [Eh]
	 Singles Energy            =      -0.0000000000000001 [Eh]
	 Same-Spin Energy          =      -0.1654614447177220 [Eh]
	 Opposite-Spin Energy      =      -0.6393173409410229 [Eh]
	 Correlation Energy        =      -0.8047787856587448 [Eh]
	 Total Energy              =    -158.1533710500960126 [Eh]
	-----------------------------------------------------------
	 ================> DF-SCS-MP2 Energies <================== 
	-----------------------------------------------------------
	 SCS Same-Spin Scale       =       0.3333333333333333 [-]
	 SCS Opposite-Spin Scale   =       1.2000000000000000 [-]
	 SCS Same-Spin Energy      =      -0.0551538149059073 [Eh]
	 SCS Opposite-Spin Energy  =      -0.7671808091292275 [Eh]
	 SCS Correlation Energy    =      -0.8223346240351348 [Eh]
	 SCS Total Energy          =    -158.1709268884723940 [Eh]
	-----------------------------------------------------------


  -Total Gradient:
     Atom            X                  Y                   Z
    ------   -----------------  -----------------  -----------------
       1        0.010462698832    -0.007120714795    -0.003852802397
       2        0.005197064017    -0.001642393519     0.010235592540
       3        0.007500824688     0.010071005150    -0.001098859438
       4       -0.021126563695    -0.006741799119    -0.005361600662
       5       -0.008508061105    -0.008162233292     0.004508587029
       6       -0.004408677562    -0.004462442599    -0.011214441114
       7        0.018014878929     0.030368324707     0.009053641851
       8        0.008097906421     0.007899286440    -0.006422687617
       9        0.003594549918     0.005717076417     0.011773991386
      10       -0.024067260791    -0.031659811387    -0.010136817098
      11       -0.008448128719     0.010063531852    -0.000654489599
      12       -0.003142784163    -0.004063583300    -0.011004940163
      13       -0.007662031289    -0.006566921600     0.006187771910
      14        0.024495584517     0.006300675045     0.007987053372


*** tstop() called on cpu-6-2.local at Wed Jun 14 14:24:38 2017
Module time:
	user time   =     311.29 seconds =       5.19 minutes
	system time =       4.19 seconds =       0.07 minutes
	total time  =        317 seconds =       5.28 minutes
Total time:
	user time   =     311.30 seconds =       5.19 minutes
	system time =       4.19 seconds =       0.07 minutes
	total time  =        317 seconds =       5.28 minutes

			-----------------------------------------
			 OPTKING 2.0: for geometry optimizations 
			  - R.A. King,  Bethel University        
			-----------------------------------------

	Internal coordinates to be generated automatically.
	Detected frag 1 with atoms:  1 2 3 4 5 6 7 8 9 10 11 12 13 14
	---Fragment 1 Bond Connectivity---
	 1 : 4
	 2 : 4
	 3 : 4
	 4 : 1 2 3 7
	 5 : 7
	 6 : 7
	 7 : 4 5 6 10
	 8 : 10
	 9 : 10
	 10 : 7 8 9 14
	 11 : 14
	 12 : 14
	 13 : 14
	 14 : 10 11 12 13

	Assuming in current code that numbering for constraints corresponds to unified fragment.
	Fixed dihedral atom list: 
	    10     7     4     3
	---Fragment 1 Geometry and Gradient---
	 H          -4.3875864217        2.5586563917        0.5306553845
	 H          -3.5504377448        1.9104803282       -2.5968413654
	 H          -4.0757816098       -0.5669506321       -0.4803480966
	 C          -3.3539062270        1.3095474179       -0.6749898883
	 H           0.4765686443        2.5492077611       -1.2003337532
	 H          -0.3511314019        2.0522097881        1.9573986148
	 C          -0.5401040152        1.3492316667        0.0714519342
	 H          -0.4758533266       -2.5492733455        1.1996184355
	 H           0.3537364457       -2.0522753725       -1.9562242064
	 C           0.5408193329       -1.3492972511       -0.0702775258
	 H           4.1029530933       -3.1842213261        0.5760088117
	 H           3.5417044319       -0.6066348809        2.5602212512
	 H           4.3712942042       -0.1096369079       -0.5956213907
	 C           3.3527318186       -1.3096130023        0.6742745706
	             0.0104626988       -0.0071207148       -0.0038528024
	             0.0051970640       -0.0016423935        0.0102355925
	             0.0075008247        0.0100710052       -0.0010988594
	            -0.0211265637       -0.0067417991       -0.0053616007
	            -0.0085080611       -0.0081622333        0.0045085870
	            -0.0044086776       -0.0044624426       -0.0112144411
	             0.0180148789        0.0303683247        0.0090536419
	             0.0080979064        0.0078992864       -0.0064226876
	             0.0035945499        0.0057170764        0.0117739914
	            -0.0240672608       -0.0316598114       -0.0101368171
	            -0.0084481287        0.0100635319       -0.0006544896
	            -0.0031427842       -0.0040635833       -0.0110049402
	            -0.0076620313       -0.0065669216        0.0061877719
	             0.0244955845        0.0063006750        0.0079870534

	Previous optimization step data not found.  Starting new optimization.

	---Fragment 1 Intrafragment Coordinates---
	 - Coordinate -           - BOHR/RAD -       - ANG/DEG -
	 R(1,4)           =         2.020482	       1.069193
	 R(2,4)           =         2.023180	       1.070621
	 R(3,4)           =         2.019959	       1.068916
	 R(4,7)           =         2.911397	       1.540645
	 R(5,7)           =         2.022623	       1.070326
	 R(6,7)           =         2.021555	       1.069761
	 R(7,10)          =         2.910419	       1.540128
	 R(8,10)          =         2.021436	       1.069698
	 R(9,10)          =         2.021379	       1.069668
	 R(10,14)         =         2.909087	       1.539422
	 R(11,14)         =         2.021545	       1.069756
	 R(12,14)         =         2.021555	       1.069761
	 R(13,14)         =         2.022387	       1.070201
	 B(1,4,2)         =         1.910812	     109.481476
	 B(1,4,3)         =         1.911325	     109.510876
	 B(1,4,7)         =         1.910318	     109.453131
	 B(2,4,3)         =         1.910011	     109.435592
	 B(2,4,7)         =         1.910683	     109.474074
	 B(3,4,7)         =         1.910650	     109.472174
	 B(4,7,5)         =         1.909937	     109.431343
	 B(4,7,6)         =         1.911630	     109.528316
	 B(4,7,10)        =         1.911154	     109.501062
	 B(5,7,6)         =         1.910605	     109.469614
	 B(5,7,10)        =         1.910047	     109.437654
	 B(6,7,10)        =         1.910425	     109.459295
	 B(7,10,8)        =         1.910303	     109.452301
	 B(7,10,9)        =         1.910824	     109.482155
	 B(7,10,14)       =         1.911213	     109.504437
	 B(8,10,9)        =         1.910417	     109.458846
	 B(8,10,14)       =         1.910766	     109.478806
	 B(9,10,14)       =         1.910276	     109.450772
	 B(10,14,11)      =         1.910943	     109.488965
	 B(10,14,12)      =         1.911204	     109.503926
	 B(10,14,13)      =         1.911557	     109.524173
	 B(11,14,12)      =         1.910410	     109.458432
	 B(11,14,13)      =         1.910054	     109.438058
	 B(12,14,13)      =         1.909629	     109.413709
	 D(1,4,7,5)       =        -1.745760	    -100.024656
	 D(1,4,7,6)       =         0.348785	      19.983896
	 D(1,4,7,10)      =         2.443855	     140.022604
	 D(2,4,7,5)       =         0.348692	      19.978574
	 D(2,4,7,6)       =         2.443236	     139.987126
	 D(2,4,7,10)      =        -1.744878	     -99.974166
	 D(3,4,7,5)       =         2.442366	     139.937272
	 D(3,4,7,6)       =        -1.746275	    -100.054176
	 D(3,4,7,10)      =         0.348796	      19.984532
	 D(4,7,10,8)      =        -1.047368	     -60.009777
	 D(4,7,10,9)      =         1.046677	      59.970178
	 D(4,7,10,14)     =         3.141107	     179.972182
	 D(5,7,10,8)      =        -3.140871	    -179.958653
	 D(5,7,10,9)      =        -1.046826	     -59.978698
	 D(5,7,10,14)     =         1.047604	      60.023306
	 D(6,7,10,8)      =         1.048439	      60.071149
	 D(6,7,10,9)      =        -3.140701	    -179.948896
	 D(6,7,10,14)     =        -1.046271	     -59.946893
	 D(7,10,14,11)    =         3.141408	     179.989448
	 D(7,10,14,12)    =         1.046747	      59.974196
	 D(7,10,14,13)    =        -1.047335	     -60.007849
	 D(8,10,14,11)    =         1.046982	      59.987626
	 D(8,10,14,12)    =        -1.047680	     -60.027626
	 D(8,10,14,13)    =         3.141424	     179.990329
	 D(9,10,14,11)    =        -1.047012	     -59.989345
	 D(9,10,14,12)    =         3.141512	     179.995403
	 D(9,10,14,13)    =         1.047431	      60.013359

	Current energy   :      -158.1533710501

	Generating empirical Hessian (Schlegel '84) for each fragment.
	Adding user-defined constraint: Fragment 1; Coordinate 46:
		Value =     0.348796; Fixed value    =     0.349066
		Force =     0.000135; Force constant =     0.500000
	Removing off-diagonal coupling between coordinate 46 and others.
	Taking RFO optimization step.
	Going to follow RFO solution 1.
	Using RFO vector 1.

	Determining step-restricting scale parameter for RS-RFO.
	Maximum step size allowed    0.10000

	 Iter      |step|        alpha        rfo_root  
	------------------------------------------------
	    0     0.21472       1.00000           1
	    1     0.16464       5.39145           1
	    2     0.12842      16.02065           1
	    3     0.10829      29.78492           1
	    4     0.10101      37.57184           1
	    5     0.10002      38.80230           1
	    6     0.10000      38.82514           1
	------------------------------------------------
	Norm of target step-size    0.10000
	Projected energy change by RFO approximation:        -0.0044658025

	Back-transformation to cartesian coordinates...
	Could not converge backtransformation.
	Using first guess instead.

	--- Internal Coordinate Step in ANG or DEG, aJ/ANG or AJ/DEG ---
	 ---------------------------------------------------------------------------
	   Coordinate                Previous        Force       Change         New 
	   ----------                --------       ------       ------       ------
	    1 R(1,4)          =      1.069193     0.099309     0.011808     1.081001
	    2 R(2,4)          =      1.070621     0.088283     0.010517     1.081138
	    3 R(3,4)          =      1.068916     0.100036     0.011981     1.080897
	    4 R(4,7)          =      1.540645     0.015422     0.002271     1.542916
	    5 R(5,7)          =      1.070326     0.098485     0.011677     1.082003
	    6 R(6,7)          =      1.069761     0.102375     0.012121     1.081881
	    7 R(7,10)         =      1.540128    -0.073120    -0.010122     1.530006
	    8 R(8,10)         =      1.069698     0.105430     0.012470     1.082167
	    9 R(9,10)         =      1.069668     0.109625     0.012965     1.082633
	   10 R(10,14)        =      1.539422    -0.047698    -0.006655     1.532768
	   11 R(11,14)        =      1.069756     0.102452     0.012151     1.081906
	   12 R(12,14)        =      1.069761     0.098647     0.011711     1.081472
	   13 R(13,14)        =      1.070201     0.095905     0.011397     1.081598
	   14 B(1,4,2)        =    109.481476    -0.000374    -0.828152   108.653324
	   15 B(1,4,3)        =    109.510876    -0.000318    -0.689963   108.820913
	   16 B(1,4,7)        =    109.453131     0.000471     1.098219   110.551350
	   17 B(2,4,3)        =    109.435592    -0.000297    -0.741714   108.693877
	   18 B(2,4,7)        =    109.474074     0.000326     0.716069   110.190143
	   19 B(3,4,7)        =    109.472174     0.000191     0.414948   109.887122
	   20 B(4,7,5)        =    109.431343    -0.000101    -0.057881   109.373462
	   21 B(4,7,6)        =    109.528316    -0.000089    -0.017120   109.511196
	   22 B(4,7,10)       =    109.501062     0.000744     1.528238   111.029300
	   23 B(5,7,6)        =    109.469614     0.000001    -0.273199   109.196415
	   24 B(5,7,10)       =    109.437654    -0.000289    -0.608270   108.829384
	   25 B(6,7,10)       =    109.459295    -0.000267    -0.586581   108.872714
	   26 B(7,10,8)       =    109.452301    -0.000248    -0.521133   108.931167
	   27 B(7,10,9)       =    109.482155    -0.000218    -0.435989   109.046167
	   28 B(7,10,14)      =    109.504437     0.000689     1.408628   110.913065
	   29 B(8,10,9)       =    109.458846     0.000022    -0.183238   109.275608
	   30 B(8,10,14)      =    109.478806    -0.000114    -0.119578   109.359228
	   31 B(9,10,14)      =    109.450772    -0.000131    -0.158453   109.292320
	   32 B(10,14,11)     =    109.488965     0.000416     0.963189   110.452153
	   33 B(10,14,12)     =    109.503926     0.000109     0.232313   109.736238
	   34 B(10,14,13)     =    109.524173     0.000125     0.270116   109.794288
	   35 B(11,14,12)     =    109.458432    -0.000242    -0.532334   108.926098
	   36 B(11,14,13)     =    109.438058    -0.000246    -0.539512   108.898546
	   37 B(12,14,13)     =    109.413709    -0.000163    -0.409279   109.004431
	   38 D(1,4,7,5)      =   -100.024656     0.000022     0.349068   -99.675587
	   39 D(1,4,7,6)      =     19.983896    -0.000005    -0.030927    19.952970
	   40 D(1,4,7,10)     =    140.022604     0.000013     0.187805   140.210409
	   41 D(2,4,7,5)      =     19.978574     0.000029     0.465598    20.444173
	   42 D(2,4,7,6)      =    139.987126     0.000002     0.085603   140.072729
	   43 D(2,4,7,10)     =    -99.974166     0.000020     0.304335   -99.669831
	   44 D(3,4,7,5)      =    139.937272     0.000018     0.254270   140.191542
	   45 D(3,4,7,6)      =   -100.054176    -0.000009    -0.125725  -100.179901
	   46 D(3,4,7,10)     =     19.984532     0.000009     0.093007    20.077538
	   47 D(4,7,10,8)     =    -60.009777     0.000025     0.332946   -59.676831
	   48 D(4,7,10,9)     =     59.970178    -0.000034    -0.463423    59.506755
	   49 D(4,7,10,14)    =    179.972182    -0.000005    -0.061572   179.910610
	   50 D(5,7,10,8)     =   -179.958653    -0.000010    -0.154942  -180.113595
	   51 D(5,7,10,9)     =    -59.978698    -0.000069    -0.951311   -60.930009
	   52 D(5,7,10,14)    =     60.023306    -0.000040    -0.549460    59.473846
	   53 D(6,7,10,8)     =     60.071149     0.000067     0.887562    60.958711
	   54 D(6,7,10,9)     =   -179.948896     0.000008     0.091193  -179.857703
	   55 D(6,7,10,14)    =    -59.946893     0.000038     0.493045   -59.453848
	   56 D(7,10,14,11)   =    179.989448    -0.000003    -0.035405   179.954043
	   57 D(7,10,14,12)   =     59.974196    -0.000008    -0.124010    59.850185
	   58 D(7,10,14,13)   =    -60.007849     0.000004     0.068698   -59.939150
	   59 D(8,10,14,11)   =     59.987626    -0.000014    -0.191681    59.795945
	   60 D(8,10,14,12)   =    -60.027626    -0.000020    -0.280286   -60.307912
	   61 D(8,10,14,13)   =    179.990329    -0.000007    -0.087577   179.902752
	   62 D(9,10,14,11)   =    -59.989345     0.000015     0.200984   -59.788360
	   63 D(9,10,14,12)   =    179.995403     0.000009     0.112379   180.107783
	   64 D(9,10,14,13)   =     60.013359     0.000021     0.305088    60.318447
	 ---------------------------------------------------------------------------
	Successfully symmetrized geometry.
	 Forces used to impose fixed constraints are not included.
	  Forces zeroed: 46 

  ==> Convergence Check <==

  Measures of convergence in internal coordinates in au.
  Criteria marked as inactive (o), active & met (*), and active & unmet ( ).
  --------------------------------------------------------------------------------------------- ~
   Step     Total Energy     Delta E     MAX Force     RMS Force      MAX Disp      RMS Disp    ~
  --------------------------------------------------------------------------------------------- ~
    Convergence Criteria    1.00e-06 *    3.00e-04 *             o    1.20e-03 *             o  ~
  --------------------------------------------------------------------------------------------- ~
      1    -158.15337105   -1.58e+02      1.33e-02      5.68e-03 o    2.67e-02      1.25e-02 o  ~
  ---------------------------------------------------------------------------------------------

	Writing optimization data to binary file.
	Structure for next step:
	Cartesian Geometry (in Angstrom)
	    H    -2.3458623788   1.3692786141   0.2778674687
	    H    -1.8993693151   1.0194673626  -1.3844510387
	    H    -2.1875547084  -0.2975921396  -0.2581293012
	    C    -1.7835931881   0.6999840232  -0.3581051812
	    H     0.2565201482   1.3453781789  -0.6414957465
	    H    -0.1856394005   1.0790389569   1.0450864670
	    C    -0.2918211670   0.7040695190   0.0358340742
	    H    -0.2479726729  -1.3484067220   0.6455560346
	    H     0.1954987705  -1.0830417875  -1.0425224269
	    C     0.2980403665  -0.7059876383  -0.0328640956
	    H     2.1895908483  -1.6988052502   0.3064856590
	    H     1.8909969727  -0.3246384504   1.3655498741
	    H     2.3333849023  -0.0594708042  -0.3182642310
	    C     1.7804305312  -0.6985168029   0.3568027346
			--------------------------
			 OPTKING Finished Execution 
			--------------------------

    Structure for next step:
    Molecular point group: c1
    Full point group: C1

    Geometry (in Angstrom), charge = 0, multiplicity = 1:

    H           -2.346486855099     1.369350816334     0.277597843521
    H           -1.899993791432     1.019539564779    -1.384720663890
    H           -2.188179184756    -0.297519937412    -0.258398926413
    C           -1.784217664470     0.700056225409    -0.358374806371
    H            0.255895671844     1.345450381036    -0.641765371688
    H           -0.186263876833     1.079111159067     1.044816841795
    C           -0.292445643346     0.704141721210     0.035564448961
    H           -0.248597149267    -1.348334519799     0.645286409397
    H            0.194874294124    -1.082969585291    -1.042792052113
    C            0.297415890110    -0.705915436132    -0.033133720848
    H            2.188966371919    -1.698733048034     0.306216033825
    H            1.890372496322    -0.324566248247     1.365280248861
    H            2.332760425983    -0.059398601976    -0.318533856246
    C            1.779806054886    -0.698444600706     0.356533109405

gradient() will perform analytic gradient computation.

*** tstart() called on cpu-6-2.local
*** at Wed Jun 14 14:24:38 2017

    SCF Algorithm Type (re)set to DF.

*** tstart() called on cpu-6-2.local
*** at Wed Jun 14 14:24:38 2017

   => Loading Basis Set <=

    Name: AUG-CC-PVTZ
    Role: ORBITAL
    Keyword: BASIS
    atoms 1-3, 5-6, 8-9, 11-13 entry H          line    34 file /cbio/jclab/home/chayas/anaconda/envs/py35/share/psi4/basis/aug-cc-pvtz.gbs 
    atoms 4, 7, 10, 14         entry C          line   221 file /cbio/jclab/home/chayas/anaconda/envs/py35/share/psi4/basis/aug-cc-pvtz.gbs 


         ---------------------------------------------------------
                                   SCF
            by Justin Turney, Rob Parrish, and Andy Simmonett
                              RHF Reference
                        1 Threads,   4768 MiB Core
         ---------------------------------------------------------

  ==> Geometry <==

    Molecular point group: c1
    Full point group: C1

    Geometry (in Angstrom), charge = 0, multiplicity = 1:

       Center              X                  Y                   Z               Mass       
    ------------   -----------------  -----------------  -----------------  -----------------
           H         -2.346486855099     1.369350816334     0.277597843521     1.007825032070
           H         -1.899993791432     1.019539564779    -1.384720663890     1.007825032070
           H         -2.188179184756    -0.297519937412    -0.258398926413     1.007825032070
           C         -1.784217664470     0.700056225409    -0.358374806371    12.000000000000
           H          0.255895671844     1.345450381036    -0.641765371688     1.007825032070
           H         -0.186263876833     1.079111159067     1.044816841795     1.007825032070
           C         -0.292445643346     0.704141721210     0.035564448961    12.000000000000
           H         -0.248597149267    -1.348334519799     0.645286409397     1.007825032070
           H          0.194874294124    -1.082969585291    -1.042792052113     1.007825032070
           C          0.297415890110    -0.705915436132    -0.033133720848    12.000000000000
           H          2.188966371919    -1.698733048034     0.306216033825     1.007825032070
           H          1.890372496322    -0.324566248247     1.365280248861     1.007825032070
           H          2.332760425983    -0.059398601976    -0.318533856246     1.007825032070
           C          1.779806054886    -0.698444600706     0.356533109405    12.000000000000

  Running in c1 symmetry.

  Rotational constants: A =      0.77695  B =      0.12306  C =      0.11532 [cm^-1]
  Rotational constants: A =  23292.23336  B =   3689.21401  C =   3457.34256 [MHz]
  Nuclear repulsion =  131.304411178663997

  Charge       = 0
  Multiplicity = 1
  Electrons    = 34
  Nalpha       = 17
  Nbeta        = 17

  ==> Algorithm <==

  SCF Algorithm Type is DF.
  DIIS enabled.
  MOM disabled.
  Fractional occupation disabled.
  Guess Type is READ.
  Energy threshold   = 1.00e-10
  Density threshold  = 1.00e-10
  Integral threshold = 0.00e+00

  ==> Primary Basis <==

  Basis Set: AUG-CC-PVTZ
    Blend: AUG-CC-PVTZ
    Number of shells: 146
    Number of basis function: 414
    Number of Cartesian functions: 470
    Spherical Harmonics?: true
    Max angular momentum: 3

   => Loading Basis Set <=

    Name: (AUG-CC-PVTZ AUX)
    Role: JKFIT
    Keyword: DF_BASIS_SCF
    atoms 1-3, 5-6, 8-9, 11-13 entry H          line    69 file /cbio/jclab/home/chayas/anaconda/envs/py35/share/psi4/basis/aug-cc-pvtz-jkfit.gbs 
    atoms 4, 7, 10, 14         entry C          line   161 file /cbio/jclab/home/chayas/anaconda/envs/py35/share/psi4/basis/aug-cc-pvtz-jkfit.gbs 

  Reading orbitals from file 180, no projection.

  ==> Pre-Iterations <==

   -------------------------------------------------------
    Irrep   Nso     Nmo     Nalpha   Nbeta   Ndocc  Nsocc
   -------------------------------------------------------
     A        414     414       0       0       0       0
   -------------------------------------------------------
    Total     414     414      17      17      17       0
   -------------------------------------------------------

  ==> Integral Setup <==

  ==> DFJK: Density-Fitted J/K Matrices <==

    J tasked:                  Yes
    K tasked:                  Yes
    wK tasked:                  No
    OpenMP threads:              1
    Integrals threads:           1
    Memory (MB):              3576
    Algorithm:                Core
    Integral Cache:           NONE
    Schwarz Cutoff:          1E-12
    Fitting Condition:       1E-12

   => Auxiliary Basis Set <=

  Basis Set: (AUG-CC-PVTZ AUX)
    Blend: AUG-CC-PVTZ-JKFIT
    Number of shells: 260
    Number of basis function: 876
    Number of Cartesian functions: 1074
    Spherical Harmonics?: true
    Max angular momentum: 4

  Minimum eigenvalue in the overlap matrix is 9.0653405735E-06.
  Using Symmetric Orthogonalization.

  SCF Guess: Orbitals guess was supplied from a previous computation.

  ==> Iterations <==

                           Total Energy        Delta E     RMS |[F,P]|

   @DF-RHF iter   0:  -157.27534631421389   -1.57275e+02   1.21387e-04 
   @DF-RHF iter   1:  -157.35113651004144   -7.57902e-02   4.95552e-05 
   @DF-RHF iter   2:  -157.35138643459041   -2.49925e-04   2.56037e-05 DIIS
   @DF-RHF iter   3:  -157.35143967074674   -5.32362e-05   2.77761e-06 DIIS
   @DF-RHF iter   4:  -157.35144105125042   -1.38050e-06   7.51964e-07 DIIS
   @DF-RHF iter   5:  -157.35144113670307   -8.54527e-08   2.52394e-07 DIIS
   @DF-RHF iter   6:  -157.35144114664513   -9.94206e-09   4.34265e-08 DIIS
   @DF-RHF iter   7:  -157.35144114706509   -4.19959e-10   6.78583e-09 DIIS
   @DF-RHF iter   8:  -157.35144114707487   -9.77707e-12   1.43761e-09 DIIS
   @DF-RHF iter   9:  -157.35144114707487    0.00000e+00   3.36876e-10 DIIS
   @DF-RHF iter  10:  -157.35144114707558   -7.10543e-13   7.54976e-11 DIIS

  ==> Post-Iterations <==

    Orbital Energies (a.u.)
    -----------------------

    Doubly Occupied:                                                      

       1A    -11.210410     2A    -11.209536     3A    -11.203425  
       4A    -11.202926     5A     -1.070263     6A     -0.978841  
       7A     -0.860545     8A     -0.789940     9A     -0.643947  
      10A     -0.584222    11A     -0.573070    12A     -0.572509  
      13A     -0.510911    14A     -0.501334    15A     -0.467877  
      16A     -0.465150    17A     -0.448274  

    Virtual:                                                              

      18A      0.032328    19A      0.037480    20A      0.039484  
      21A      0.040428    22A      0.058096    23A      0.058797  
      24A      0.060224    25A      0.061145    26A      0.077914  
      27A      0.082952    28A      0.102223    29A      0.112644  
      30A      0.122610    31A      0.130620    32A      0.138352  
      33A      0.141763    34A      0.142200    35A      0.145177  
      36A      0.148332    37A      0.160818    38A      0.166092  
      39A      0.166335    40A      0.172420    41A      0.200133  
      42A      0.202114    43A      0.215927    44A      0.226170  
      45A      0.240857    46A      0.249400    47A      0.253090  
      48A      0.266129    49A      0.277949    50A      0.282179  
      51A      0.288016    52A      0.311728    53A      0.318738  
      54A      0.331362    55A      0.338116    56A      0.346293  
      57A      0.355938    58A      0.357236    59A      0.358707  
      60A      0.366934    61A      0.367542    62A      0.370715  
      63A      0.381928    64A      0.387035    65A      0.389467  
      66A      0.391039    67A      0.396673    68A      0.399356  
      69A      0.403833    70A      0.409257    71A      0.416013  
      72A      0.429479    73A      0.440511    74A      0.444946  
      75A      0.447772    76A      0.459969    77A      0.460791  
      78A      0.463752    79A      0.468532    80A      0.485058  
      81A      0.488952    82A      0.498836    83A      0.501722  
      84A      0.507057    85A      0.515604    86A      0.517700  
      87A      0.521714    88A      0.529403    89A      0.541952  
      90A      0.543068    91A      0.546861    92A      0.554981  
      93A      0.566268    94A      0.573896    95A      0.581427  
      96A      0.587863    97A      0.598831    98A      0.611260  
      99A      0.612682   100A      0.633759   101A      0.640412  
     102A      0.653802   103A      0.676533   104A      0.678771  
     105A      0.697537   106A      0.720645   107A      0.757026  
     108A      0.772951   109A      0.796971   110A      0.811025  
     111A      0.821185   112A      0.827499   113A      0.834092  
     114A      0.841622   115A      0.845553   116A      0.859623  
     117A      0.863578   118A      0.877333   119A      0.879496  
     120A      0.888366   121A      0.894743   122A      0.901172  
     123A      0.915241   124A      0.918655   125A      0.921960  
     126A      0.926705   127A      0.929844   128A      0.935505  
     129A      0.945614   130A      0.955007   131A      0.962176  
     132A      0.975128   133A      0.980007   134A      0.990605  
     135A      0.995600   136A      1.015402   137A      1.029864  
     138A      1.031276   139A      1.044164   140A      1.069822  
     141A      1.076198   142A      1.077391   143A      1.087864  
     144A      1.092866   145A      1.101184   146A      1.108783  
     147A      1.117913   148A      1.134346   149A      1.149584  
     150A      1.153816   151A      1.159949   152A      1.168502  
     153A      1.176048   154A      1.191409   155A      1.208945  
     156A      1.215297   157A      1.225356   158A      1.238415  
     159A      1.243577   160A      1.246665   161A      1.256815  
     162A      1.266758   163A      1.273088   164A      1.286159  
     165A      1.291818   166A      1.303326   167A      1.309949  
     168A      1.317653   169A      1.336416   170A      1.352820  
     171A      1.366617   172A      1.388182   173A      1.407897  
     174A      1.416198   175A      1.426448   176A      1.438957  
     177A      1.452211   178A      1.477355   179A      1.490317  
     180A      1.501939   181A      1.517210   182A      1.527113  
     183A      1.539502   184A      1.554750   185A      1.566397  
     186A      1.584807   187A      1.599280   188A      1.605741  
     189A      1.623012   190A      1.638278   191A      1.645661  
     192A      1.663791   193A      1.679574   194A      1.685905  
     195A      1.698209   196A      1.701145   197A      1.709567  
     198A      1.711910   199A      1.727147   200A      1.733355  
     201A      1.738506   202A      1.756427   203A      1.757351  
     204A      1.764435   205A      1.772006   206A      1.776485  
     207A      1.784823   208A      1.808327   209A      1.819121  
     210A      1.849304   211A      1.857119   212A      1.877991  
     213A      1.896427   214A      1.907571   215A      1.920440  
     216A      1.934282   217A      1.959402   218A      1.965199  
     219A      1.984916   220A      1.995095   221A      2.000941  
     222A      2.017767   223A      2.023687   224A      2.032046  
     225A      2.047904   226A      2.054268   227A      2.077434  
     228A      2.085144   229A      2.096835   230A      2.154593  
     231A      2.171150   232A      2.182027   233A      2.187990  
     234A      2.211325   235A      2.234503   236A      2.254396  
     237A      2.263482   238A      2.278372   239A      2.292353  
     240A      2.301218   241A      2.318742   242A      2.335704  
     243A      2.341285   244A      2.345617   245A      2.365331  
     246A      2.380960   247A      2.410012   248A      2.438404  
     249A      2.462027   250A      2.473961   251A      2.507578  
     252A      2.532383   253A      2.592040   254A      2.610639  
     255A      2.624914   256A      2.665839   257A      2.792301  
     258A      2.887371   259A      2.971890   260A      3.041063  
     261A      3.205526   262A      3.245767   263A      3.293549  
     264A      3.364393   265A      3.397088   266A      3.427563  
     267A      3.443114   268A      3.456862   269A      3.475943  
     270A      3.486906   271A      3.515389   272A      3.561240  
     273A      3.571407   274A      3.585360   275A      3.593428  
     276A      3.603478   277A      3.625228   278A      3.660107  
     279A      3.680119   280A      3.682521   281A      3.695783  
     282A      3.712527   283A      3.725343   284A      3.741106  
     285A      3.744796   286A      3.780186   287A      3.786882  
     288A      3.797525   289A      3.824060   290A      3.830745  
     291A      3.847387   292A      3.867387   293A      3.880112  
     294A      3.886112   295A      3.902530   296A      3.912520  
     297A      3.960451   298A      3.972841   299A      3.973834  
     300A      3.982295   301A      3.998143   302A      4.004826  
     303A      4.017929   304A      4.027344   305A      4.049819  
     306A      4.056783   307A      4.070416   308A      4.087136  
     309A      4.149386   310A      4.168181   311A      4.180938  
     312A      4.192179   313A      4.225106   314A      4.231129  
     315A      4.238754   316A      4.259789   317A      4.268055  
     318A      4.284715   319A      4.307089   320A      4.318995  
     321A      4.342062   322A      4.362725   323A      4.375003  
     324A      4.408568   325A      4.435982   326A      4.456994  
     327A      4.508170   328A      4.517186   329A      4.553023  
     330A      4.566592   331A      4.596774   332A      4.640553  
     333A      4.646091   334A      4.667501   335A      4.701134  
     336A      4.705426   337A      4.725899   338A      4.737524  
     339A      4.756015   340A      4.787232   341A      4.797569  
     342A      4.849477   343A      4.857113   344A      4.867806  
     345A      4.880793   346A      4.928256   347A      4.936297  
     348A      4.947315   349A      4.969149   350A      4.992425  
     351A      5.024246   352A      5.039645   353A      5.053226  
     354A      5.092643   355A      5.110851   356A      5.130949  
     357A      5.160461   358A      5.174627   359A      5.203354  
     360A      5.228624   361A      5.239210   362A      5.253949  
     363A      5.280670   364A      5.294482   365A      5.309313  
     366A      5.320900   367A      5.353693   368A      5.371117  
     369A      5.415438   370A      5.432370   371A      5.444457  
     372A      5.449376   373A      5.482373   374A      5.496044  
     375A      5.551233   376A      5.568307   377A      5.570344  
     378A      5.622486   379A      5.630694   380A      5.659260  
     381A      5.676421   382A      5.718799   383A      5.745730  
     384A      5.765903   385A      5.795802   386A      5.820027  
     387A      5.860723   388A      5.903781   389A      5.942995  
     390A      5.999584   391A      6.059114   392A      6.111622  
     393A      6.139982   394A      6.167715   395A      6.190485  
     396A      6.216505   397A      6.234156   398A      6.295907  
     399A      6.302687   400A      6.333449   401A      6.355882  
     402A      6.457070   403A      6.556936   404A      6.599697  
     405A      6.736511   406A      6.777941   407A      6.827197  
     408A      6.848472   409A      6.862746   410A      6.983926  
     411A     18.000023   412A     18.109198   413A     18.815589  
     414A     19.355710  

    Final Occupation by Irrep:
              A 
    DOCC [    17 ]

  Energy converged.

  @DF-RHF Final Energy:  -157.35144114707558

   => Energetics <=

    Nuclear Repulsion Energy =            131.3044111786639974
    One-Electron Energy =                -470.7253434680733903
    Two-Electron Energy =                 182.0694911423338169
    DFT Exchange-Correlation Energy =       0.0000000000000000
    Empirical Dispersion Energy =           0.0000000000000000
    PCM Polarization Energy =               0.0000000000000000
    EFP Energy =                            0.0000000000000000
    Total Energy =                       -157.3514411470755761



Properties will be evaluated at   0.000000,   0.000000,   0.000000 Bohr

Properties computed using the SCF density matrix

  Nuclear Dipole Moment: (a.u.)
     X:    -0.0062      Y:     0.0018      Z:    -0.0066

  Electronic Dipole Moment: (a.u.)
     X:     0.0070      Y:    -0.0024      Z:     0.0053

  Dipole Moment: (a.u.)
     X:     0.0008      Y:    -0.0006      Z:    -0.0012     Total:     0.0016

  Dipole Moment: (Debye)
     X:     0.0020      Y:    -0.0015      Z:    -0.0031     Total:     0.0040


*** tstop() called on cpu-6-2.local at Wed Jun 14 14:25:29 2017
Module time:
	user time   =      50.69 seconds =       0.84 minutes
	system time =       0.48 seconds =       0.01 minutes
	total time  =         51 seconds =       0.85 minutes
Total time:
	user time   =     362.04 seconds =       6.03 minutes
	system time =       4.74 seconds =       0.08 minutes
	total time  =        368 seconds =       6.13 minutes

  //>>>>>>>>>>>>>>>>>>>>>>>>>>>>>>>>>>>//
  //               DFMP2               //
  //<<<<<<<<<<<<<<<<<<<<<<<<<<<<<<<<<<<//

   => Loading Basis Set <=

    Name: (AUG-CC-PVTZ AUX)
    Role: RIFIT
    Keyword: DF_BASIS_MP2
    atoms 1-3, 5-6, 8-9, 11-13 entry H          line    29 file /cbio/jclab/home/chayas/anaconda/envs/py35/share/psi4/basis/aug-cc-pvtz-ri.gbs 
    atoms 4, 7, 10, 14         entry C          line   147 file /cbio/jclab/home/chayas/anaconda/envs/py35/share/psi4/basis/aug-cc-pvtz-ri.gbs 

	 --------------------------------------------------------
	                          DF-MP2                         
	      2nd-Order Density-Fitted Moller-Plesset Theory     
	              RMP2 Wavefunction,   1 Threads             
	                                                         
	        Rob Parrish, Justin Turney, Andy Simmonett,      
	           Ed Hohenstein, and C. David Sherrill          
	 --------------------------------------------------------

   => Auxiliary Basis Set <=

  Basis Set: (AUG-CC-PVTZ AUX)
    Blend: AUG-CC-PVTZ-RI
    Number of shells: 252
    Number of basis function: 884
    Number of Cartesian functions: 1094
    Spherical Harmonics?: true
    Max angular momentum: 4

	 --------------------------------------------------------
	                 NBF =   414, NAUX =   884
	 --------------------------------------------------------
	   CLASS    FOCC     OCC    AOCC    AVIR     VIR    FVIR
	   PAIRS       0      17      17     397     397       0
	 --------------------------------------------------------


         ------------------------------------------------------------
                                     CPHF                           
                                  Rob Parrish                       
         ------------------------------------------------------------

  ==> Geometry <==

    Molecular point group: c1
    Full point group: C1

    Geometry (in Angstrom), charge = 0, multiplicity = 1:

       Center              X                  Y                   Z               Mass       
    ------------   -----------------  -----------------  -----------------  -----------------
           H         -2.346486855099     1.369350816334     0.277597843521     1.007825032070
           H         -1.899993791432     1.019539564779    -1.384720663890     1.007825032070
           H         -2.188179184756    -0.297519937412    -0.258398926413     1.007825032070
           C         -1.784217664470     0.700056225409    -0.358374806371    12.000000000000
           H          0.255895671844     1.345450381036    -0.641765371688     1.007825032070
           H         -0.186263876833     1.079111159067     1.044816841795     1.007825032070
           C         -0.292445643346     0.704141721210     0.035564448961    12.000000000000
           H         -0.248597149267    -1.348334519799     0.645286409397     1.007825032070
           H          0.194874294124    -1.082969585291    -1.042792052113     1.007825032070
           C          0.297415890110    -0.705915436132    -0.033133720848    12.000000000000
           H          2.188966371919    -1.698733048034     0.306216033825     1.007825032070
           H          1.890372496322    -0.324566248247     1.365280248861     1.007825032070
           H          2.332760425983    -0.059398601976    -0.318533856246     1.007825032070
           C          1.779806054886    -0.698444600706     0.356533109405    12.000000000000

  Nuclear repulsion =  131.304411178663997
  Reference energy  = -157.351441147075576

  ==> Basis Set <==

  Basis Set: AUG-CC-PVTZ
    Blend: AUG-CC-PVTZ
    Number of shells: 146
    Number of basis function: 414
    Number of Cartesian functions: 470
    Spherical Harmonics?: true
    Max angular momentum: 3

  ==> CGRSolver (by Rob Parrish) <==

   Number of roots    =         1
   Preconditioning    =    JACOBI
   Convergence cutoff =     1E-06
   Maximum iterations =       100

  ==> CPHFRHamiltonian (by Rob Parrish) <== 

  ==> DFJK: Density-Fitted J/K Matrices <==

    J tasked:                  Yes
    K tasked:                  Yes
    wK tasked:                  No
    OpenMP threads:              1
    Integrals threads:           1
    Memory (MB):              3576
    Algorithm:                Core
    Integral Cache:           NONE
    Schwarz Cutoff:          1E-12
    Fitting Condition:       1E-12

   => Auxiliary Basis Set <=

  Basis Set: (AUG-CC-PVTZ AUX)
    Blend: AUG-CC-PVTZ-JKFIT
    Number of shells: 260
    Number of basis function: 876
    Number of Cartesian functions: 1074
    Spherical Harmonics?: true
    Max angular momentum: 4

  ==> CPHF Iterations <==

  => Iterations <=

             Iter  Converged  Remaining    Residual
  CGR           1          0          1   8.296E-02
  CGR           2          0          1   1.328E-02
  CGR           3          0          1   3.489E-03
  CGR           4          0          1   8.149E-04
  CGR           5          0          1   1.202E-04
  CGR           6          0          1   2.204E-05
  CGR           7          0          1   3.963E-06
  CGR           8          1          0   9.368E-07

    CGRSolver converged.

  ==> DFCorrGrad: Density-Fitted Correlated Gradients <==

    OpenMP threads:              1
    Integrals threads:           1
    Memory (MB):              3576
    Schwarz Cutoff:          0E+00
    Fitting Condition:       1E-12

   => Auxiliary Basis Set <=

  Basis Set: (AUG-CC-PVTZ AUX)
    Blend: AUG-CC-PVTZ-JKFIT
    Number of shells: 260
    Number of basis function: 876
    Number of Cartesian functions: 1074
    Spherical Harmonics?: true
    Max angular momentum: 4

	-----------------------------------------------------------
	 ==================> DF-MP2 Energies <==================== 
	-----------------------------------------------------------
	 Reference Energy          =    -157.3514411470755761 [Eh]
	 Singles Energy            =      -0.0000000000000001 [Eh]
	 Same-Spin Energy          =      -0.1653436813718975 [Eh]
	 Opposite-Spin Energy      =      -0.6396814723118233 [Eh]
	 Correlation Energy        =      -0.8050251536837209 [Eh]
	 Total Energy              =    -158.1564663007592912 [Eh]
	-----------------------------------------------------------
	 ================> DF-SCS-MP2 Energies <================== 
	-----------------------------------------------------------
	 SCS Same-Spin Scale       =       0.3333333333333333 [-]
	 SCS Opposite-Spin Scale   =       1.2000000000000000 [-]
	 SCS Same-Spin Energy      =      -0.0551145604572992 [Eh]
	 SCS Opposite-Spin Energy  =      -0.7676177667741879 [Eh]
	 SCS Correlation Energy    =      -0.8227323272314871 [Eh]
	 SCS Total Energy          =    -158.1741734743070538 [Eh]
	-----------------------------------------------------------


  -Total Gradient:
     Atom            X                  Y                   Z
    ------   -----------------  -----------------  -----------------
       1        0.004080954857    -0.002320991738    -0.000197179811
       2        0.002784038469     0.000376029804     0.003501737201
       3        0.003580161456     0.003049682087    -0.000698115943
       4       -0.013205037734    -0.003554021669    -0.003294758635
       5       -0.003835543886    -0.004488037031    -0.000598627948
       6       -0.002970634749    -0.002656722750    -0.003378342089
       7        0.012535623632     0.016119995293     0.005145734290
       8        0.003612482750     0.003885915596    -0.000674540031
       9        0.002760116559     0.003618899464     0.003403085543
      10       -0.013892918497    -0.016399144700    -0.004918186956
      11       -0.003486632848     0.002611267813    -0.000532773405
      12       -0.002176055601    -0.001500271383    -0.003593493674
      13       -0.003495112639    -0.002213440916     0.001414907037
      14        0.013708558235     0.003470840133     0.004420554421


*** tstop() called on cpu-6-2.local at Wed Jun 14 14:29:25 2017
Module time:
	user time   =     283.61 seconds =       4.73 minutes
	system time =       4.03 seconds =       0.07 minutes
	total time  =        287 seconds =       4.78 minutes
Total time:
	user time   =     594.96 seconds =       9.92 minutes
	system time =       8.29 seconds =       0.14 minutes
	total time  =        604 seconds =      10.07 minutes

			-----------------------------------------
			 OPTKING 2.0: for geometry optimizations 
			  - R.A. King,  Bethel University        
			-----------------------------------------

	Previous internal coordinate definitions found.
	---Fragment 1 Geometry and Gradient---
	 H          -4.4342175306        2.5876980227        0.5245838993
	 H          -3.5904679200        1.9266505591       -2.6167428253
	 H          -4.1350593889       -0.5622312008       -0.4883032040
	 C          -3.3716827473        1.3229145436       -0.6772302370
	 H           0.4835727384        2.5425327455       -1.2127607941
	 H          -0.3519877157        2.0392245576        1.9744176900
	 C          -0.5526421747        1.3306350118        0.0672070686
	 H          -0.4697805295       -2.5479829779        1.2194145910
	 H           0.3682590462       -2.0465159264       -1.9705913920
	 C           0.5620345799       -1.3339868473       -0.0626136582
	 H           4.1365469570       -3.2101402337        0.5786644414
	 H           3.5722863072       -0.6133413212        2.5800057650
	 H           4.4082783387       -0.1122470904       -0.6019417524
	 C           3.3633460134       -1.3198690143        0.6737499341
	             0.0040809549       -0.0023209917       -0.0001971798
	             0.0027840385        0.0003760298        0.0035017372
	             0.0035801615        0.0030496821       -0.0006981159
	            -0.0132050377       -0.0035540217       -0.0032947586
	            -0.0038355439       -0.0044880370       -0.0005986279
	            -0.0029706347       -0.0026567227       -0.0033783421
	             0.0125356236        0.0161199953        0.0051457343
	             0.0036124828        0.0038859156       -0.0006745400
	             0.0027601166        0.0036188995        0.0034030855
	            -0.0138929185       -0.0163991447       -0.0049181870
	            -0.0034866328        0.0026112678       -0.0005327734
	            -0.0021760556       -0.0015002714       -0.0035934937
	            -0.0034951126       -0.0022134409        0.0014149070
	             0.0137085582        0.0034708401        0.0044205544

	---Fragment 1 Intrafragment Coordinates---
	 - Coordinate -           - BOHR/RAD -       - ANG/DEG -
	 R(1,4)           =         2.042796	       1.081001
	 R(2,4)           =         2.043055	       1.081138
	 R(3,4)           =         2.042599	       1.080897
	 R(4,7)           =         2.915688	       1.542916
	 R(5,7)           =         2.044690	       1.082003
	 R(6,7)           =         2.044459	       1.081881
	 R(7,10)          =         2.891292	       1.530006
	 R(8,10)          =         2.045000	       1.082167
	 R(9,10)          =         2.045880	       1.082633
	 R(10,14)         =         2.896511	       1.532768
	 R(11,14)         =         2.044506	       1.081906
	 R(12,14)         =         2.043685	       1.081472
	 R(13,14)         =         2.043924	       1.081598
	 B(1,4,2)         =         1.896358	     108.653324
	 B(1,4,3)         =         1.899283	     108.820913
	 B(1,4,7)         =         1.929485	     110.551350
	 B(2,4,3)         =         1.897066	     108.693877
	 B(2,4,7)         =         1.923181	     110.190143
	 B(3,4,7)         =         1.917892	     109.887122
	 B(4,7,5)         =         1.908927	     109.373462
	 B(4,7,6)         =         1.911331	     109.511196
	 B(4,7,10)        =         1.937827	     111.029300
	 B(5,7,6)         =         1.905837	     109.196415
	 B(5,7,10)        =         1.899431	     108.829384
	 B(6,7,10)        =         1.900187	     108.872714
	 B(7,10,8)        =         1.901208	     108.931167
	 B(7,10,9)        =         1.903215	     109.046167
	 B(7,10,14)       =         1.935798	     110.913065
	 B(8,10,9)        =         1.907219	     109.275608
	 B(8,10,14)       =         1.908679	     109.359228
	 B(9,10,14)       =         1.907511	     109.292320
	 B(10,14,11)      =         1.927754	     110.452153
	 B(10,14,12)      =         1.915259	     109.736238
	 B(10,14,13)      =         1.916272	     109.794288
	 B(11,14,12)      =         1.901119	     108.926098
	 B(11,14,13)      =         1.900638	     108.898546
	 B(12,14,13)      =         1.902486	     109.004431
	 D(1,4,7,5)       =        -1.739667	     -99.675587
	 D(1,4,7,6)       =         0.348245	      19.952970
	 D(1,4,7,10)      =         2.447133	     140.210409
	 D(2,4,7,5)       =         0.356818	      20.444173
	 D(2,4,7,6)       =         2.444730	     140.072729
	 D(2,4,7,10)      =        -1.739567	     -99.669831
	 D(3,4,7,5)       =         2.446804	     140.191542
	 D(3,4,7,6)       =        -1.748469	    -100.179901
	 D(3,4,7,10)      =         0.350419	      20.077538
	 D(4,7,10,8)      =        -1.041557	     -59.676831
	 D(4,7,10,9)      =         1.038589	      59.506755
	 D(4,7,10,14)     =         3.140032	     179.910610
	 D(5,7,10,8)      =         3.139610	     179.886405
	 D(5,7,10,9)      =        -1.063429	     -60.930009
	 D(5,7,10,14)     =         1.038014	      59.473846
	 D(6,7,10,8)      =         1.063930	      60.958711
	 D(6,7,10,9)      =        -3.139109	    -179.857703
	 D(6,7,10,14)     =        -1.037665	     -59.453848
	 D(7,10,14,11)    =         3.140791	     179.954043
	 D(7,10,14,12)    =         1.044583	      59.850185
	 D(7,10,14,13)    =        -1.046136	     -59.939150
	 D(8,10,14,11)    =         1.043636	      59.795945
	 D(8,10,14,12)    =        -1.052572	     -60.307912
	 D(8,10,14,13)    =         3.139895	     179.902752
	 D(9,10,14,11)    =        -1.043504	     -59.788360
	 D(9,10,14,12)    =        -3.139711	    -179.892217
	 D(9,10,14,13)    =         1.052755	      60.318447

	Current energy   :      -158.1564663008

	Energy change for the previous step:
		Projected    :        -0.0044658025
		Actual       :        -0.0030952507

	Performing BFGS update.
	Previous computed or guess Hessian on step 1.
	Steps to be used in Hessian update: 1
	Adding user-defined constraint: Fragment 1; Coordinate 46:
		Value =     0.350419; Fixed value    =     0.349070
		Force =    -0.000708; Force constant =     0.525000
	Removing off-diagonal coupling between coordinate 46 and others.
	Taking RFO optimization step.
	Going to follow RFO solution 1.
	Using RFO vector 1.

	Determining step-restricting scale parameter for RS-RFO.
	Maximum step size allowed    0.10000

	 Iter      |step|        alpha        rfo_root  
	------------------------------------------------
	    0     0.18219       1.00000           1
	    1     0.14586       5.19975           1
	    2     0.11752      14.59173           1
	    3     0.10380      23.44322           1
	    4     0.10024      26.53431           1
	    5     0.10000      26.75995           1
	------------------------------------------------
	Norm of target step-size    0.10000
	Projected energy change by RFO approximation:        -0.0018187777

	Back-transformation to cartesian coordinates...
	Successfully converged to displaced geometry.

	--- Internal Coordinate Step in ANG or DEG, aJ/ANG or AJ/DEG ---
	 ---------------------------------------------------------------------------
	   Coordinate                Previous        Force       Change         New 
	   ----------                --------       ------       ------       ------
	    1 R(1,4)          =      1.081001     0.030283     0.005272     1.086273
	    2 R(2,4)          =      1.081138     0.028928     0.005176     1.086315
	    3 R(3,4)          =      1.080897     0.034744     0.006383     1.087280
	    4 R(4,7)          =      1.542916    -0.023485    -0.007679     1.535237
	    5 R(5,7)          =      1.082003     0.034843     0.006368     1.088371
	    6 R(6,7)          =      1.081881     0.035953     0.006547     1.088428
	    7 R(7,10)         =      1.530006    -0.040296    -0.009752     1.520254
	    8 R(8,10)         =      1.082167     0.037506     0.006851     1.089019
	    9 R(9,10)         =      1.082633     0.038685     0.007048     1.089681
	   10 R(10,14)        =      1.532768    -0.039935    -0.010558     1.522210
	   11 R(11,14)        =      1.081906     0.030550     0.005250     1.087156
	   12 R(12,14)        =      1.081472     0.033721     0.006103     1.087574
	   13 R(13,14)        =      1.081598     0.032771     0.005935     1.087533
	   14 B(1,4,2)        =    108.653324    -0.000203    -0.773064   107.880260
	   15 B(1,4,3)        =    108.820913    -0.000169    -0.574148   108.246765
	   16 B(1,4,7)        =    110.551350     0.000240     1.021219   111.572569
	   17 B(2,4,3)        =    108.693877    -0.000193    -0.994225   107.699652
	   18 B(2,4,7)        =    110.190143     0.000190     0.731167   110.921310
	   19 B(3,4,7)        =    109.887122     0.000121     0.494719   110.381840
	   20 B(4,7,5)        =    109.373462    -0.000010     0.245289   109.618751
	   21 B(4,7,6)        =    109.511196    -0.000004     0.215734   109.726930
	   22 B(4,7,10)       =    111.029300     0.000295     1.108791   112.138091
	   23 B(5,7,6)        =    109.196415    -0.000091    -1.169778   108.026637
	   24 B(5,7,10)       =    108.829384    -0.000096    -0.140255   108.689129
	   25 B(6,7,10)       =    108.872714    -0.000100    -0.328802   108.543912
	   26 B(7,10,8)       =    108.931167    -0.000091    -0.233041   108.698126
	   27 B(7,10,9)       =    109.046167    -0.000073    -0.124383   108.921784
	   28 B(7,10,14)      =    110.913065     0.000279     1.060892   111.973958
	   29 B(8,10,9)       =    109.275608    -0.000077    -1.077827   108.197781
	   30 B(8,10,14)      =    109.359228    -0.000017     0.169833   109.529062
	   31 B(9,10,14)      =    109.292320    -0.000026     0.148138   109.440457
	   32 B(10,14,11)     =    110.452153     0.000208     0.828246   111.280399
	   33 B(10,14,12)     =    109.736238     0.000117     0.562058   110.298296
	   34 B(10,14,13)     =    109.794288     0.000124     0.586473   110.380761
	   35 B(11,14,12)     =    108.926098    -0.000154    -0.643823   108.282275
	   36 B(11,14,13)     =    108.898546    -0.000155    -0.640301   108.258245
	   37 B(12,14,13)     =    109.004431    -0.000148    -0.755535   108.248896
	   38 D(1,4,7,5)      =    -99.675587     0.000022     1.082584   -98.593003
	   39 D(1,4,7,6)      =     19.952970    -0.000005    -0.067295    19.885675
	   40 D(1,4,7,10)     =    140.210409     0.000008     0.381237   140.591647
	   41 D(2,4,7,5)      =     20.444173     0.000028     1.267988    21.712161
	   42 D(2,4,7,6)      =    140.072729     0.000000     0.118109   140.190839
	   43 D(2,4,7,10)     =    -99.669831     0.000014     0.566641   -99.103190
	   44 D(3,4,7,5)      =    140.191542     0.000017     0.812512   141.004054
[...]
  CGR           9          1          0   2.440E-07

    CGRSolver converged.

  ==> DFCorrGrad: Density-Fitted Correlated Gradients <==

    OpenMP threads:              1
    Integrals threads:           1
    Memory (MB):              3576
    Schwarz Cutoff:          0E+00
    Fitting Condition:       1E-12

   => Auxiliary Basis Set <=

  Basis Set: (AUG-CC-PVTZ AUX)
    Blend: AUG-CC-PVTZ-JKFIT
    Number of shells: 260
    Number of basis function: 876
    Number of Cartesian functions: 1074
    Spherical Harmonics?: true
    Max angular momentum: 4

	-----------------------------------------------------------
	 ==================> DF-MP2 Energies <==================== 
	-----------------------------------------------------------
	 Reference Energy          =    -157.3526935932973174 [Eh]
	 Singles Energy            =      -0.0000000000000000 [Eh]
	 Same-Spin Energy          =      -0.1654623084858864 [Eh]
	 Opposite-Spin Energy      =      -0.6397260391792491 [Eh]
	 Correlation Energy        =      -0.8051883476651355 [Eh]
	 Total Energy              =    -158.1578819409624543 [Eh]
	-----------------------------------------------------------
	 ================> DF-SCS-MP2 Energies <================== 
	-----------------------------------------------------------
	 SCS Same-Spin Scale       =       0.3333333333333333 [-]
	 SCS Opposite-Spin Scale   =       1.2000000000000000 [-]
	 SCS Same-Spin Energy      =      -0.0551541028286288 [Eh]
	 SCS Opposite-Spin Energy  =      -0.7676712470150989 [Eh]
	 SCS Correlation Energy    =      -0.8228253498437277 [Eh]
	 SCS Total Energy          =    -158.1755189431410429 [Eh]
	-----------------------------------------------------------


  -Total Gradient:
     Atom            X                  Y                   Z
    ------   -----------------  -----------------  -----------------
       1       -0.000006629665    -0.000005965615     0.000004827953
       2        0.000019334907    -0.000002188522     0.000017765030
       3        0.000823767891    -0.000614858644    -0.003007552598
       4       -0.001274148320     0.000624640611     0.004629070148
       5        0.000005434882    -0.000008911306     0.000002686917
       6       -0.000012376489     0.000004771149    -0.000016655596
       7        0.001054121267     0.000378929698    -0.003826685644
       8        0.000008758235     0.000001287339    -0.000009002220
       9       -0.000004308318     0.000006708061    -0.000000712817
      10       -0.000606654482    -0.000373736861     0.002171404229
      11        0.000000133390    -0.000000049207     0.000008149194
      12        0.000006931339    -0.000000074400    -0.000005330822
      13       -0.000019707551    -0.000005110950    -0.000001180038
      14        0.000005342912    -0.000005441350     0.000033216266


*** tstop() called on cpu-6-2.local at Wed Jun 14 14:58:54 2017
Module time:
	user time   =     296.19 seconds =       4.94 minutes
	system time =       3.98 seconds =       0.07 minutes
	total time  =        300 seconds =       5.00 minutes
Total time:
	user time   =    2339.32 seconds =      38.99 minutes
	system time =      33.30 seconds =       0.56 minutes
	total time  =       2373 seconds =      39.55 minutes

			-----------------------------------------
			 OPTKING 2.0: for geometry optimizations 
			  - R.A. King,  Bethel University        
			-----------------------------------------

	Previous internal coordinate definitions found.
	---Fragment 1 Geometry and Gradient---
	 H          -4.4867400080        2.6079163702        0.4513185174
	 H          -3.5917094207        1.8654077456       -2.6536440852
	 H          -4.1745113259       -0.5707055220       -0.5192619708
	 C          -3.3694083353        1.3148302795       -0.6854945210
	 H           0.4904278238        2.5903840769       -1.1199379997
	 H          -0.3833037925        2.0064649446        2.0028759458
	 C          -0.5848253148        1.3035055709        0.0758034786
	 H          -0.4506002704       -2.5544979773        1.2339458591
	 H           0.3419328450       -2.0817425069       -1.9382811051
	 C           0.5872128086       -1.3109166499       -0.0407057706
	 H           4.1694130509       -3.1971227384        0.5899778018
	 H           3.6393159558       -0.5650004074        2.5535651412
	 H           4.4386563229       -0.1182795447       -0.6397938493
	 C           3.3676187185       -1.3059767039        0.6536920435
	            -0.0000066297       -0.0000059656        0.0000048280
	             0.0000193349       -0.0000021885        0.0000177650
	             0.0008237679       -0.0006148586       -0.0030075526
	            -0.0012741483        0.0006246406        0.0046290701
	             0.0000054349       -0.0000089113        0.0000026869
	            -0.0000123765        0.0000047711       -0.0000166556
	             0.0010541213        0.0003789297       -0.0038266856
	             0.0000087582        0.0000012873       -0.0000090022
	            -0.0000043083        0.0000067081       -0.0000007128
	            -0.0006066545       -0.0003737369        0.0021714042
	             0.0000001334       -0.0000000492        0.0000081492
	             0.0000069313       -0.0000000744       -0.0000053308
	            -0.0000197076       -0.0000051110       -0.0000011800
	             0.0000053429       -0.0000054414        0.0000332163

	---Fragment 1 Intrafragment Coordinates---
	 - Coordinate -           - BOHR/RAD -       - ANG/DEG -
	 R(1,4)           =         2.052522	       1.086148
	 R(2,4)           =         2.055764	       1.087864
	 R(3,4)           =         2.056956	       1.088494
	 R(4,7)           =         2.886798	       1.527628
	 R(5,7)           =         2.059617	       1.089903
	 R(6,7)           =         2.061158	       1.090718
	 R(7,10)          =         2.867482	       1.517406
	 R(8,10)          =         2.061137	       1.090707
	 R(9,10)          =         2.062796	       1.091585
	 R(10,14)         =         2.865810	       1.516522
	 R(11,14)         =         2.055083	       1.087503
	 R(12,14)         =         2.057276	       1.088663
	 R(13,14)         =         2.056903	       1.088466
	 B(1,4,2)         =         1.878283	     107.617666
	 B(1,4,3)         =         1.896174	     108.642793
	 B(1,4,7)         =         1.962219	     112.426867
	 B(2,4,3)         =         1.855161	     106.292896
	 B(2,4,7)         =         1.936745	     110.967296
	 B(3,4,7)         =         1.931185	     110.648747
	 B(4,7,5)         =         1.926258	     110.366463
	 B(4,7,6)         =         1.917216	     109.848402
	 B(4,7,10)        =         1.968306	     112.775631
	 B(5,7,6)         =         1.853196	     106.180305
	 B(5,7,10)        =         1.909960	     109.432668
	 B(6,7,10)        =         1.884915	     107.997660
	 B(7,10,8)        =         1.895650	     108.612731
	 B(7,10,9)        =         1.906547	     109.237093
	 B(7,10,14)       =         1.966152	     112.652233
	 B(8,10,9)        =         1.858299	     106.472714
	 B(8,10,14)       =         1.917398	     109.858801
	 B(9,10,14)       =         1.916548	     109.810104
	 B(10,14,11)      =         1.949188	     111.680241
	 B(10,14,12)      =         1.931056	     110.641347
	 B(10,14,13)      =         1.932436	     110.720430
	 B(11,14,12)      =         1.884462	     107.971697
	 B(11,14,13)      =         1.884631	     107.981406
	 B(12,14,13)      =         1.879683	     107.697926
	 D(1,4,7,5)       =        -1.662485	     -95.253378
	 D(1,4,7,6)       =         0.375101	      21.491692
	 D(1,4,7,10)      =         2.478563	     142.011203
	 D(2,4,7,5)       =         0.442106	      25.330812
	 D(2,4,7,6)       =         2.479692	     142.075882
	 D(2,4,7,10)      =        -1.700031	     -97.404606
	 D(3,4,7,5)       =         2.497077	     143.071973
	 D(3,4,7,6)       =        -1.748522	    -100.182957
	 D(3,4,7,10)      =         0.354940	      20.336554
	 D(4,7,10,8)      =        -1.038072	     -59.477128
	 D(4,7,10,9)      =         0.982128	      56.271784
	 D(4,7,10,14)     =         3.116938	     178.587396
	 D(5,7,10,8)      =         3.093890	     177.266853
	 D(5,7,10,9)      =        -1.169095	     -66.984235
	 D(5,7,10,14)     =         0.965715	      55.331378
	 D(6,7,10,8)      =         1.083788	      62.096459
	 D(6,7,10,9)      =         3.103987	     177.845371
	 D(6,7,10,14)     =        -1.044388	     -59.839016
	 D(7,10,14,11)    =         3.125498	     179.077861
	 D(7,10,14,12)    =         1.025820	      58.775137
	 D(7,10,14,13)    =        -1.056853	     -60.553209
	 D(8,10,14,11)    =         1.009667	      57.849663
	 D(8,10,14,12)    =        -1.090012	     -62.453061
	 D(8,10,14,13)    =         3.110501	     178.218593
	 D(9,10,14,11)    =        -1.028518	     -58.929747
	 D(9,10,14,12)    =        -3.128197	    -179.232472
	 D(9,10,14,13)    =         1.072316	      61.439183

	Current energy   :      -158.1578819410

	Energy change for the previous step:
		Projected    :        -0.0000031700
		Actual       :        -0.0000003765

	Performing BFGS update.
	Previous computed or guess Hessian on step 1.
	Steps to be used in Hessian update: 7 6
	Adding user-defined constraint: Fragment 1; Coordinate 46:
		Value =     0.354940; Fixed value    =     0.349070
		Force =    -0.003962; Force constant =     0.675000
	Removing off-diagonal coupling between coordinate 46 and others.
	Taking RFO optimization step.
	Going to follow RFO solution 1.
	Rejecting RFO root 1 because normalization gives large value.
	Using RFO vector 2.
	Norm of target step-size    0.08154
	Projected energy change by RFO approximation:        -0.0000679556

	Back-transformation to cartesian coordinates...
	Could not converge backtransformation.
	Using first guess instead.

	--- Internal Coordinate Step in ANG or DEG, aJ/ANG or AJ/DEG ---
	 ---------------------------------------------------------------------------
	   Coordinate                Previous        Force       Change         New 
	   ----------                --------       ------       ------       ------
	    1 R(1,4)          =      1.086148    -0.000021     0.000718     1.086866
	    2 R(2,4)          =      1.087864     0.000162    -0.000042     1.087822
	    3 R(3,4)          =      1.088494     0.000015     0.000272     1.088767
	    4 R(4,7)          =      1.527628     0.000094     0.000103     1.527731
	    5 R(5,7)          =      1.089903     0.000035     0.001013     1.090915
	    6 R(6,7)          =      1.090718     0.000125     0.000124     1.090842
	    7 R(7,10)         =      1.517406    -0.000040    -0.000197     1.517209
	    8 R(8,10)         =      1.090707     0.000089     0.000368     1.091075
	    9 R(9,10)         =      1.091585     0.000011     0.000469     1.092054
	   10 R(10,14)        =      1.516522    -0.000011    -0.000365     1.516156
	   11 R(11,14)        =      1.087503     0.000001     0.000206     1.087709
	   12 R(12,14)        =      1.088663     0.000033     0.000534     1.089197
	   13 R(13,14)        =      1.088466     0.000103     0.000645     1.089111
	   14 B(1,4,2)        =    107.617666    -0.000001    -0.024901   107.592766
	   15 B(1,4,3)        =    108.642793     0.000002    -0.223389   108.419404
	   16 B(1,4,7)        =    112.426867    -0.000000    -0.262046   112.164822
	   17 B(2,4,3)        =    106.292896    -0.000003     0.117793   106.410689
	   18 B(2,4,7)        =    110.967296     0.000001     0.346523   111.313819
	   19 B(3,4,7)        =    110.648747     0.000000     0.053133   110.701880
	   20 B(4,7,5)        =    110.366463    -0.000002    -0.166769   110.199694
	   21 B(4,7,6)        =    109.848402     0.000001     0.190273   110.038675
	   22 B(4,7,10)       =    112.775631     0.000001     0.073453   112.849083
	   23 B(5,7,6)        =    106.180305     0.000000    -0.068407   106.111897
	   24 B(5,7,10)       =    109.432668     0.000002     0.217007   109.649675
	   25 B(6,7,10)       =    107.997660    -0.000003    -0.254517   107.743143
	   26 B(7,10,8)       =    108.612731    -0.000000     0.130197   108.742929
	   27 B(7,10,9)       =    109.237093     0.000000    -0.101317   109.135776
	   28 B(7,10,14)      =    112.652233    -0.000000    -0.019998   112.632234
	   29 B(8,10,9)       =    106.472714     0.000000    -0.066474   106.406240
	   30 B(8,10,14)      =    109.858801     0.000001     0.091668   109.950469
	   31 B(9,10,14)      =    109.810104    -0.000001    -0.036339   109.773765
	   32 B(10,14,11)     =    111.680241    -0.000000     0.006745   111.686986
	   33 B(10,14,12)     =    110.641347    -0.000001     0.012414   110.653761
	   34 B(10,14,13)     =    110.720430     0.000002     0.120728   110.841158
	   35 B(11,14,12)     =    107.971697     0.000001    -0.022078   107.949619
	   36 B(11,14,13)     =    107.981406    -0.000001    -0.067945   107.913461
	   37 B(12,14,13)     =    107.697926    -0.000000    -0.057426   107.640500
	   38 D(1,4,7,5)      =    -95.253378     0.000000    -0.183863   -95.437241
	   39 D(1,4,7,6)      =     21.491692     0.000000    -0.252581    21.239111
	   40 D(1,4,7,10)     =    142.011203    -0.000000    -0.394365   141.616838
	   41 D(2,4,7,5)      =     25.330812     0.000000    -0.152761    25.178051
	   42 D(2,4,7,6)      =    142.075882     0.000000    -0.221480   141.854403
	   43 D(2,4,7,10)     =    -97.404606    -0.000000    -0.363264   -97.767870
	   44 D(3,4,7,5)      =    143.071973    -0.000000     0.246843   143.318816
	   45 D(3,4,7,6)      =   -100.182957    -0.000000     0.178124  -100.004833
	   46 D(3,4,7,10)     =     20.336554    -0.000001     0.036340    20.372895
	   47 D(4,7,10,8)     =    -59.477128    -0.000000    -1.266745   -60.743873
	   48 D(4,7,10,9)     =     56.271784    -0.000000    -1.329350    54.942434
	   49 D(4,7,10,14)    =    178.587396    -0.000000    -1.461439   177.125958
	   50 D(5,7,10,8)     =    177.266853    -0.000000    -1.262499   176.004354
	   51 D(5,7,10,9)     =    -66.984235    -0.000000    -1.325104   -68.309339
	   52 D(5,7,10,14)    =     55.331378    -0.000000    -1.457192    53.874185
	   53 D(6,7,10,8)     =     62.096459     0.000000    -1.156731    60.939729
	   54 D(6,7,10,9)     =    177.845371     0.000000    -1.219336   176.626036
	   55 D(6,7,10,14)    =    -59.839016    -0.000000    -1.351424   -61.190440
	   56 D(7,10,14,11)   =    179.077861     0.000000     0.870640   179.948502
	   57 D(7,10,14,12)   =     58.775137     0.000000     0.885652    59.660789
	   58 D(7,10,14,13)   =    -60.553209     0.000000     0.871428   -59.681780
	   59 D(8,10,14,11)   =     57.849663    -0.000000     0.652813    58.502476
	   60 D(8,10,14,12)   =    -62.453061     0.000000     0.667825   -61.785237
	   61 D(8,10,14,13)   =    178.218593     0.000000     0.653601   178.872194
	   62 D(9,10,14,11)   =    -58.929747    -0.000000     0.701169   -58.228578
	   63 D(9,10,14,12)   =   -179.232472     0.000000     0.716181  -178.516291
	   64 D(9,10,14,13)   =     61.439183     0.000000     0.701957    62.141140
	 ---------------------------------------------------------------------------
	Successfully symmetrized geometry.
	 Forces used to impose fixed constraints are not included.
	  Forces zeroed: 46 

  ==> Convergence Check <==

  Measures of convergence in internal coordinates in au.
  Criteria marked as inactive (o), active & met (*), and active & unmet ( ).
  ---------------------------------------------------------------------------------------------
   Step     Total Energy     Delta E     MAX Force     RMS Force      MAX Disp      RMS Disp   
  ---------------------------------------------------------------------------------------------
    Convergence Criteria    1.00e-06 *    3.00e-04 *             o    1.20e-03 *             o
  ---------------------------------------------------------------------------------------------
      8    -158.15788194   -3.76e-07 *    3.76e-05 *    1.28e-05 o    2.55e-02      1.02e-02 o  ~
  ---------------------------------------------------------------------------------------------


  **** Optimization is complete! (in 8 steps) ****

  ==> Optimization Summary <==

  Measures of convergence in internal coordinates in au.
  --------------------------------------------------------------------------------------------------------------- ~
   Step         Total Energy             Delta E       MAX Force       RMS Force        MAX Disp        RMS Disp  ~
  --------------------------------------------------------------------------------------------------------------- ~
      1    -158.153371050096   -158.153371050096      0.01330605      0.00568152      0.02667279      0.01250804  ~
      2    -158.156466300759     -0.003095250663      0.00489107      0.00236067      0.03046520      0.01252446  ~
      3    -158.157551921395     -0.001085620635      0.00179724      0.00070553      0.04025812      0.01251588  ~
      4    -158.157837797488     -0.000285876093      0.00097070      0.00021531      0.03849765      0.01221471  ~
      5    -158.157880197689     -0.000042400201      0.00023362      0.00006021      0.00637469      0.00299421  ~
      6    -158.157883986211     -0.000003788522      0.00005039      0.00001902      0.00496548      0.00191740  ~
      7    -158.157881564496      0.000002421714      0.00007582      0.00002187      0.00535906      0.00195968  ~
      8    -158.157881940962     -0.000000376466      0.00005235      0.00001441      0.02550691      0.01019163  ~
  --------------------------------------------------------------------------------------------------------------- ~

	Writing optimization data to binary file.
	Final energy is   -158.1578819409625
	Final (previous) structure:
	Cartesian Geometry (in Angstrom)
	    H    -2.3742805531   1.3800499050   0.2388274732
	    H    -1.9006507653   0.9871312637  -1.4042479696
	    H    -2.2090562507  -0.3020043550  -0.2747816002
	    C    -1.7830140975   0.6957782171  -0.3627480771
	    H     0.2595232268   1.3707722150  -0.5926456645
	    H    -0.2028356310   1.0617755185   1.0598763021
	    C    -0.3094762276   0.6897854394   0.0401134732
	    H    -0.2384473933  -1.3517821090   0.6529760253
	    H     0.1809430685  -1.1016106888  -1.0256941847
	    C     0.3107396349  -0.6937072135  -0.0215405661
	    H     2.2063583597  -1.6918444862   0.3122028063
	    H     1.9258430586  -0.2989853385   1.3512884734
	    H     2.3488357629  -0.0625908393  -0.3385643233
	    C     1.7820670730  -0.6910931067   0.3459189309
	Saving final (previous) structure.
			--------------------------
			 OPTKING Finished Execution 
			--------------------------

    Final optimized geometry and variables:
    Molecular point group: c1
    Full point group: C1

    Geometry (in Angstrom), charge = 0, multiplicity = 1:

    H           -2.374280553099     1.380049905043     0.238827473242
    H           -1.900650765306     0.987131263712    -1.404247969597
    H           -2.209056250686    -0.302004355039    -0.274781600244
    C           -1.783014097474     0.695778217062    -0.362748077122
    H            0.259523226826     1.370772214977    -0.592645664472
    H           -0.202835630954     1.061775518518     1.059876302133
    C           -0.309476227580     0.689785439410     0.040113473189
    H           -0.238447393274    -1.351782108996     0.652976025263
    H            0.180943068463    -1.101610688821    -1.025694184651
    C            0.310739634904    -0.693707213505    -0.021540566077
    H            2.206358359739    -1.691844486225     0.312202806276
    H            1.925843058648    -0.298985338451     1.351288473388
    H            2.348835762854    -0.062590839275    -0.338564323269
    C            1.782067073034    -0.691093106667     0.345918930878

	Cleaning optimization helper files.

*** Psi4 exiting successfully. Buy a developer a beer!
