
    -----------------------------------------------------------------------
          Psi4: An Open-Source Ab Initio Electronic Structure Package
                               Psi4 1.1 release

                         Git: Rev {HEAD} add49b9 


    R. M. Parrish, L. A. Burns, D. G. A. Smith, A. C. Simmonett,
    A. E. DePrince III, E. G. Hohenstein, U. Bozkaya, A. Yu. Sokolov,
    R. Di Remigio, R. M. Richard, J. F. Gonthier, A. M. James,
    H. R. McAlexander, A. Kumar, M. Saitow, X. Wang, B. P. Pritchard,
    P. Verma, H. F. Schaefer III, K. Patkowski, R. A. King, E. F. Valeev,
    F. A. Evangelista, J. M. Turney, T. D. Crawford, and C. D. Sherrill,
    J. Chem. Theory Comput. in press (2017).
    (doi: 10.1021/acs.jctc.7b00174)

    -----------------------------------------------------------------------


    Psi4 started on: Wednesday, 14 June 2017 02:27PM

    Process ID:   3137
    PSIDATADIR: /cbio/jclab/home/chayas/anaconda/envs/py35/share/psi4
    Memory:     500.0 MiB
    Threads:    1
    
  ==> Input File <==

--------------------------------------------------------------------------

memory 1000 mb

molecule butane {
  symmetry C1
  0 1 
  H      3.629   1.697   -10.667
  H      3.627   3.188   -9.754
  H      5.090   2.242   -9.880
  C      4.024   2.195   -9.807
  H      4.028   1.914   -7.677
  H      2.565   1.369   -8.462
  C      3.631   1.416   -8.537
  H      3.665   -0.647   -7.940
  H      4.104   -0.384   -9.610
  C      4.203   -0.012   -8.612
  H      6.088   -0.983   -8.270
  H      5.791   0.381   -7.220
  H      6.230   0.644   -8.890
  C      5.691   0.009   -8.218
  units Angstrom
}

dih_string = "14 10 7 4 80"
set optking fixed_dihedral = $dih_string

optimize('MP2/aug-cc-pvtz')
--------------------------------------------------------------------------

  Memory set to 953.674 MiB by Python driver.
gradient() will perform analytic gradient computation.

*** tstart() called on gpu-1-9.local
*** at Wed Jun 14 14:27:56 2017

    SCF Algorithm Type (re)set to DF.

*** tstart() called on gpu-1-9.local
*** at Wed Jun 14 14:27:56 2017

   => Loading Basis Set <=

    Name: AUG-CC-PVTZ
    Role: ORBITAL
    Keyword: BASIS
    atoms 1-3, 5-6, 8-9, 11-13 entry H          line    34 file /cbio/jclab/home/chayas/anaconda/envs/py35/share/psi4/basis/aug-cc-pvtz.gbs 
    atoms 4, 7, 10, 14         entry C          line   221 file /cbio/jclab/home/chayas/anaconda/envs/py35/share/psi4/basis/aug-cc-pvtz.gbs 


         ---------------------------------------------------------
                                   SCF
            by Justin Turney, Rob Parrish, and Andy Simmonett
                              RHF Reference
                        1 Threads,    953 MiB Core
         ---------------------------------------------------------

  ==> Geometry <==

    Molecular point group: c1
    Full point group: C1

    Geometry (in Angstrom), charge = 0, multiplicity = 1:

       Center              X                  Y                   Z               Mass       
    ------------   -----------------  -----------------  -----------------  -----------------
           H         -0.774639797171     0.788041494266    -1.865951496274     1.007825032070
           H         -0.776639797171     2.279041494266    -0.952951496274     1.007825032070
           H          0.686360202829     1.333041494266    -1.078951496274     1.007825032070
           C         -0.379639797171     1.286041494266    -1.005951496274    12.000000000000
           H         -0.375639797171     1.005041494266     1.124048503726     1.007825032070
           H         -1.838639797171     0.460041494266     0.339048503726     1.007825032070
           C         -0.772639797171     0.507041494266     0.264048503726    12.000000000000
           H         -0.738639797171    -1.555958505734     0.861048503726     1.007825032070
           H         -0.299639797171    -1.292958505734    -0.808951496274     1.007825032070
           C         -0.200639797171    -0.920958505734     0.189048503726    12.000000000000
           H          1.684360202829    -1.891958505734     0.531048503726     1.007825032070
           H          1.387360202829    -0.527958505734     1.581048503726     1.007825032070
           H          1.826360202829    -0.264958505734    -0.088951496274     1.007825032070
           C          1.287360202829    -0.899958505734     0.583048503726    12.000000000000

  Running in c1 symmetry.

  Rotational constants: A =      0.45824  B =      0.15807  C =      0.14031 [cm^-1]
  Rotational constants: A =  13737.56733  B =   4738.76760  C =   4206.41066 [MHz]
  Nuclear repulsion =  133.858933939852420

  Charge       = 0
  Multiplicity = 1
  Electrons    = 34
  Nalpha       = 17
  Nbeta        = 17

  ==> Algorithm <==

  SCF Algorithm Type is DF.
  DIIS enabled.
  MOM disabled.
  Fractional occupation disabled.
  Guess Type is SAD.
  Energy threshold   = 1.00e-10
  Density threshold  = 1.00e-10
  Integral threshold = 0.00e+00

  ==> Primary Basis <==

  Basis Set: AUG-CC-PVTZ
    Blend: AUG-CC-PVTZ
    Number of shells: 146
    Number of basis function: 414
    Number of Cartesian functions: 470
    Spherical Harmonics?: true
    Max angular momentum: 3

   => Loading Basis Set <=

    Name: (AUG-CC-PVTZ AUX)
    Role: JKFIT
    Keyword: DF_BASIS_SCF
    atoms 1-3, 5-6, 8-9, 11-13 entry H          line    69 file /cbio/jclab/home/chayas/anaconda/envs/py35/share/psi4/basis/aug-cc-pvtz-jkfit.gbs 
    atoms 4, 7, 10, 14         entry C          line   161 file /cbio/jclab/home/chayas/anaconda/envs/py35/share/psi4/basis/aug-cc-pvtz-jkfit.gbs 

  ==> Pre-Iterations <==

   -------------------------------------------------------
    Irrep   Nso     Nmo     Nalpha   Nbeta   Ndocc  Nsocc
   -------------------------------------------------------
     A        414     414       0       0       0       0
   -------------------------------------------------------
    Total     414     414      17      17      17       0
   -------------------------------------------------------

  ==> Integral Setup <==

  ==> DFJK: Density-Fitted J/K Matrices <==

    J tasked:                  Yes
    K tasked:                  Yes
    wK tasked:                  No
    OpenMP threads:              1
    Integrals threads:           1
    Memory (MB):               715
    Algorithm:                Core
    Integral Cache:           NONE
    Schwarz Cutoff:          1E-12
    Fitting Condition:       1E-12

   => Auxiliary Basis Set <=

  Basis Set: (AUG-CC-PVTZ AUX)
    Blend: AUG-CC-PVTZ-JKFIT
    Number of shells: 260
    Number of basis function: 876
    Number of Cartesian functions: 1074
    Spherical Harmonics?: true
    Max angular momentum: 4

  Minimum eigenvalue in the overlap matrix is 6.4615012532E-06.
  Using Symmetric Orthogonalization.

  SCF Guess: Superposition of Atomic Densities via on-the-fly atomic UHF.

  ==> Iterations <==

                           Total Energy        Delta E     RMS |[F,P]|

   @DF-RHF iter   0:  -159.06327252637504   -1.59063e+02   9.61272e-03 
   @DF-RHF iter   1:  -157.24271962949055    1.82055e+00   8.78563e-04 
   @DF-RHF iter   2:  -157.33795614834344   -9.52365e-02   2.82173e-04 DIIS
   @DF-RHF iter   3:  -157.34813287620244   -1.01767e-02   1.12782e-04 DIIS
   @DF-RHF iter   4:  -157.34983471728208   -1.70184e-03   1.87841e-05 DIIS
   @DF-RHF iter   5:  -157.34990413843835   -6.94212e-05   4.12631e-06 DIIS
   @DF-RHF iter   6:  -157.34990768990070   -3.55146e-06   1.16225e-06 DIIS
   @DF-RHF iter   7:  -157.34990786114622   -1.71246e-07   2.60351e-07 DIIS
   @DF-RHF iter   8:  -157.34990787345544   -1.23092e-08   4.62854e-08 DIIS
   @DF-RHF iter   9:  -157.34990787389421   -4.38774e-10   1.29478e-08 DIIS
   @DF-RHF iter  10:  -157.34990787392567   -3.14628e-11   4.32486e-09 DIIS
   @DF-RHF iter  11:  -157.34990787392934   -3.66640e-12   1.07495e-09 DIIS
   @DF-RHF iter  12:  -157.34990787392911    2.27374e-13   2.43491e-10 DIIS
   @DF-RHF iter  13:  -157.34990787392877    3.41061e-13   5.62132e-11 DIIS

  ==> Post-Iterations <==

    Orbital Energies (a.u.)
    -----------------------

    Doubly Occupied:                                                      

       1A    -11.206478     2A    -11.205877     3A    -11.199427  
       4A    -11.199313     5A     -1.072647     6A     -0.976619  
       7A     -0.872180     8A     -0.786993     9A     -0.630039  
      10A     -0.624340    11A     -0.580452    12A     -0.539102  
      13A     -0.528625    14A     -0.506519    15A     -0.473765  
      16A     -0.457628    17A     -0.448528  

    Virtual:                                                              

      18A      0.032118    19A      0.037797    20A      0.039523  
      21A      0.041167    22A      0.057566    23A      0.058964  
      24A      0.059599    25A      0.060953    26A      0.077779  
      27A      0.085756    28A      0.102912    29A      0.122073  
      30A      0.122106    31A      0.126107    32A      0.129042  
      33A      0.132241    34A      0.138590    35A      0.144736  
      36A      0.154943    37A      0.155567    38A      0.162358  
      39A      0.166283    40A      0.173101    41A      0.192091  
      42A      0.212518    43A      0.215084    44A      0.234701  
      45A      0.246531    46A      0.258535    47A      0.258996  
      48A      0.277230    49A      0.280316    50A      0.300960  
      51A      0.301079    52A      0.305699    53A      0.311071  
      54A      0.323150    55A      0.330525    56A      0.332083  
      57A      0.346747    58A      0.360707    59A      0.361594  
      60A      0.361711    61A      0.363935    62A      0.370135  
      63A      0.383018    64A      0.387274    65A      0.388913  
      66A      0.395696    67A      0.406580    68A      0.409929  
      69A      0.421149    70A      0.429531    71A      0.429686  
      72A      0.439207    73A      0.439346    74A      0.445755  
      75A      0.452966    76A      0.461684    77A      0.472913  
      78A      0.476718    79A      0.480288    80A      0.483456  
      81A      0.490553    82A      0.498405    83A      0.501555  
      84A      0.508221    85A      0.518278    86A      0.521947  
      87A      0.525507    88A      0.532225    89A      0.539516  
      90A      0.552991    91A      0.558515    92A      0.573131  
      93A      0.579572    94A      0.591212    95A      0.598761  
      96A      0.603865    97A      0.604979    98A      0.617022  
      99A      0.624160   100A      0.641146   101A      0.642548  
     102A      0.652456   103A      0.661924   104A      0.679605  
     105A      0.692834   106A      0.720631   107A      0.743476  
     108A      0.790020   109A      0.798095   110A      0.815599  
     111A      0.818716   112A      0.827872   113A      0.836259  
     114A      0.836707   115A      0.843305   116A      0.860221  
     117A      0.863695   118A      0.868971   119A      0.884703  
     120A      0.884824   121A      0.888427   122A      0.895496  
     123A      0.913406   124A      0.915612   125A      0.924958  
     126A      0.932178   127A      0.936184   128A      0.948934  
     129A      0.950002   130A      0.974695   131A      0.981904  
     132A      0.987541   133A      0.996839   134A      1.006638  
     135A      1.014144   136A      1.015694   137A      1.034061  
     138A      1.046886   139A      1.055253   140A      1.067105  
     141A      1.074599   142A      1.093410   143A      1.110037  
     144A      1.111108   145A      1.119525   146A      1.131926  
     147A      1.132809   148A      1.151068   149A      1.153913  
     150A      1.160769   151A      1.165542   152A      1.195452  
     153A      1.195517   154A      1.196409   155A      1.198656  
     156A      1.214630   157A      1.234227   158A      1.241846  
     159A      1.251790   160A      1.268467   161A      1.271987  
     162A      1.277686   163A      1.290807   164A      1.293638  
     165A      1.318933   166A      1.334166   167A      1.343171  
     168A      1.352659   169A      1.371999   170A      1.375960  
     171A      1.382552   172A      1.390105   173A      1.416346  
     174A      1.438694   175A      1.445550   176A      1.450441  
     177A      1.465648   178A      1.480440   179A      1.492494  
     180A      1.518131   181A      1.538159   182A      1.549361  
     183A      1.550189   184A      1.558564   185A      1.569297  
     186A      1.594266   187A      1.601928   188A      1.606736  
     189A      1.623711   190A      1.654302   191A      1.670211  
     192A      1.680893   193A      1.682179   194A      1.687294  
     195A      1.697184   196A      1.707750   197A      1.715483  
     198A      1.736315   199A      1.741757   200A      1.750173  
     201A      1.759852   202A      1.771899   203A      1.781451  
     204A      1.786648   205A      1.798663   206A      1.808729  
     207A      1.816120   208A      1.816756   209A      1.835721  
     210A      1.864259   211A      1.868772   212A      1.878981  
     213A      1.879993   214A      1.916799   215A      1.962885  
     216A      1.965083   217A      1.972146   218A      1.985171  
     219A      1.988924   220A      2.000109   221A      2.022734  
     222A      2.029085   223A      2.058669   224A      2.066844  
     225A      2.075780   226A      2.080708   227A      2.110975  
     228A      2.117441   229A      2.142789   230A      2.157171  
     231A      2.175946   232A      2.202012   233A      2.206263  
     234A      2.226571   235A      2.234634   236A      2.257864  
     237A      2.279643   238A      2.289287   239A      2.308733  
     240A      2.315576   241A      2.320950   242A      2.324616  
     243A      2.364785   244A      2.365034   245A      2.393854  
     246A      2.409176   247A      2.431209   248A      2.468813  
     249A      2.473212   250A      2.521500   251A      2.531647  
     252A      2.533108   253A      2.563803   254A      2.592675  
     255A      2.599550   256A      2.611966   257A      2.721651  
     258A      2.827663   259A      2.966754   260A      3.038380  
     261A      3.228159   262A      3.261785   263A      3.279757  
     264A      3.374774   265A      3.387508   266A      3.411246  
     267A      3.457566   268A      3.490281   269A      3.517884  
     270A      3.521201   271A      3.536769   272A      3.546341  
     273A      3.566210   274A      3.605196   275A      3.614029  
     276A      3.614789   277A      3.623236   278A      3.684411  
     279A      3.691204   280A      3.697199   281A      3.708700  
     282A      3.718407   283A      3.723727   284A      3.766027  
     285A      3.780033   286A      3.784345   287A      3.808967  
     288A      3.812053   289A      3.825993   290A      3.838529  
     291A      3.856435   292A      3.862118   293A      3.864806  
     294A      3.910185   295A      3.919852   296A      3.956285  
     297A      3.968722   298A      3.986084   299A      3.991523  
     300A      3.991909   301A      3.998207   302A      4.032942  
     303A      4.033932   304A      4.055726   305A      4.066559  
     306A      4.071789   307A      4.086028   308A      4.112130  
     309A      4.114908   310A      4.185164   311A      4.188702  
     312A      4.190885   313A      4.215790   314A      4.244152  
     315A      4.248686   316A      4.275130   317A      4.275883  
     318A      4.299982   319A      4.320716   320A      4.323481  
     321A      4.346815   322A      4.359497   323A      4.371705  
     324A      4.426542   325A      4.440217   326A      4.459617  
     327A      4.486899   328A      4.547554   329A      4.593923  
     330A      4.601123   331A      4.634354   332A      4.647903  
     333A      4.689916   334A      4.707298   335A      4.720732  
     336A      4.750758   337A      4.754864   338A      4.794632  
     339A      4.827763   340A      4.831884   341A      4.846034  
     342A      4.878530   343A      4.888754   344A      4.898839  
     345A      4.902629   346A      4.933151   347A      4.941159  
     348A      4.955530   349A      4.990989   350A      4.999740  
     351A      5.012398   352A      5.035067   353A      5.069557  
     354A      5.102781   355A      5.146880   356A      5.155497  
     357A      5.174877   358A      5.197224   359A      5.213309  
     360A      5.250095   361A      5.250956   362A      5.275234  
     363A      5.293311   364A      5.295940   365A      5.323582  
     366A      5.372014   367A      5.394427   368A      5.422508  
     369A      5.426461   370A      5.467553   371A      5.477748  
     372A      5.496793   373A      5.509951   374A      5.513623  
     375A      5.580246   376A      5.612025   377A      5.617407  
     378A      5.636901   379A      5.667808   380A      5.708140  
     381A      5.736630   382A      5.749012   383A      5.784880  
     384A      5.812572   385A      5.843649   386A      5.849359  
     387A      5.879976   388A      5.945460   389A      5.958198  
     390A      6.054399   391A      6.125736   392A      6.155144  
     393A      6.158824   394A      6.182397   395A      6.274324  
     396A      6.281123   397A      6.307657   398A      6.340520  
     399A      6.346577   400A      6.372633   401A      6.403400  
     402A      6.445376   403A      6.600887   404A      6.615046  
     405A      6.775920   406A      6.784062   407A      6.815348  
     408A      6.877909   409A      6.938311   410A      6.975367  
     411A     18.102072   412A     18.281757   413A     18.692860  
     414A     18.894829  

    Final Occupation by Irrep:
              A 
    DOCC [    17 ]

  Energy converged.

  @DF-RHF Final Energy:  -157.34990787392877

   => Energetics <=

    Nuclear Repulsion Energy =            133.8589339398524203
    One-Electron Energy =                -475.8006209559704303
    Two-Electron Energy =                 184.5917791421892389
    DFT Exchange-Correlation Energy =       0.0000000000000000
    Empirical Dispersion Energy =           0.0000000000000000
    PCM Polarization Energy =               0.0000000000000000
    EFP Energy =                            0.0000000000000000
    Total Energy =                       -157.3499078739287711



Properties will be evaluated at   0.000000,   0.000000,   0.000000 Bohr

Properties computed using the SCF density matrix

  Nuclear Dipole Moment: (a.u.)
     X:     0.7318      Y:     0.3107      Z:    -0.3370

  Electronic Dipole Moment: (a.u.)
     X:    -0.7683      Y:    -0.3270      Z:     0.3542

  Dipole Moment: (a.u.)
     X:    -0.0365      Y:    -0.0163      Z:     0.0172     Total:     0.0435

  Dipole Moment: (Debye)
     X:    -0.0928      Y:    -0.0414      Z:     0.0436     Total:     0.1106


*** tstop() called on gpu-1-9.local at Wed Jun 14 14:29:28 2017
Module time:
	user time   =      90.74 seconds =       1.51 minutes
	system time =       0.74 seconds =       0.01 minutes
	total time  =         92 seconds =       1.53 minutes
Total time:
	user time   =      90.75 seconds =       1.51 minutes
	system time =       0.74 seconds =       0.01 minutes
	total time  =         92 seconds =       1.53 minutes

  //>>>>>>>>>>>>>>>>>>>>>>>>>>>>>>>>>>>//
  //               DFMP2               //
  //<<<<<<<<<<<<<<<<<<<<<<<<<<<<<<<<<<<//

   => Loading Basis Set <=

    Name: (AUG-CC-PVTZ AUX)
    Role: RIFIT
    Keyword: DF_BASIS_MP2
    atoms 1-3, 5-6, 8-9, 11-13 entry H          line    29 file /cbio/jclab/home/chayas/anaconda/envs/py35/share/psi4/basis/aug-cc-pvtz-ri.gbs 
    atoms 4, 7, 10, 14         entry C          line   147 file /cbio/jclab/home/chayas/anaconda/envs/py35/share/psi4/basis/aug-cc-pvtz-ri.gbs 

	 --------------------------------------------------------
	                          DF-MP2                         
	      2nd-Order Density-Fitted Moller-Plesset Theory     
	              RMP2 Wavefunction,   1 Threads             
	                                                         
	        Rob Parrish, Justin Turney, Andy Simmonett,      
	           Ed Hohenstein, and C. David Sherrill          
	 --------------------------------------------------------

   => Auxiliary Basis Set <=

  Basis Set: (AUG-CC-PVTZ AUX)
    Blend: AUG-CC-PVTZ-RI
    Number of shells: 252
    Number of basis function: 884
    Number of Cartesian functions: 1094
    Spherical Harmonics?: true
    Max angular momentum: 4

	 --------------------------------------------------------
	                 NBF =   414, NAUX =   884
	 --------------------------------------------------------
	   CLASS    FOCC     OCC    AOCC    AVIR     VIR    FVIR
	   PAIRS       0      17      17     397     397       0
	 --------------------------------------------------------


         ------------------------------------------------------------
                                     CPHF                           
                                  Rob Parrish                       
         ------------------------------------------------------------

  ==> Geometry <==

    Molecular point group: c1
    Full point group: C1

    Geometry (in Angstrom), charge = 0, multiplicity = 1:

       Center              X                  Y                   Z               Mass       
    ------------   -----------------  -----------------  -----------------  -----------------
           H         -0.774639797171     0.788041494266    -1.865951496274     1.007825032070
           H         -0.776639797171     2.279041494266    -0.952951496274     1.007825032070
           H          0.686360202829     1.333041494266    -1.078951496274     1.007825032070
           C         -0.379639797171     1.286041494266    -1.005951496274    12.000000000000
           H         -0.375639797171     1.005041494266     1.124048503726     1.007825032070
           H         -1.838639797171     0.460041494266     0.339048503726     1.007825032070
           C         -0.772639797171     0.507041494266     0.264048503726    12.000000000000
           H         -0.738639797171    -1.555958505734     0.861048503726     1.007825032070
           H         -0.299639797171    -1.292958505734    -0.808951496274     1.007825032070
           C         -0.200639797171    -0.920958505734     0.189048503726    12.000000000000
           H          1.684360202829    -1.891958505734     0.531048503726     1.007825032070
           H          1.387360202829    -0.527958505734     1.581048503726     1.007825032070
           H          1.826360202829    -0.264958505734    -0.088951496274     1.007825032070
           C          1.287360202829    -0.899958505734     0.583048503726    12.000000000000

  Nuclear repulsion =  133.858933939852420
  Reference energy  = -157.349907873928771

  ==> Basis Set <==

  Basis Set: AUG-CC-PVTZ
    Blend: AUG-CC-PVTZ
    Number of shells: 146
    Number of basis function: 414
    Number of Cartesian functions: 470
    Spherical Harmonics?: true
    Max angular momentum: 3

  ==> CGRSolver (by Rob Parrish) <==

   Number of roots    =         1
   Preconditioning    =    JACOBI
   Convergence cutoff =     1E-06
   Maximum iterations =       100

  ==> CPHFRHamiltonian (by Rob Parrish) <== 

  ==> DFJK: Density-Fitted J/K Matrices <==

    J tasked:                  Yes
    K tasked:                  Yes
    wK tasked:                  No
    OpenMP threads:              1
    Integrals threads:           1
    Memory (MB):               715
    Algorithm:                Core
    Integral Cache:           NONE
    Schwarz Cutoff:          1E-12
    Fitting Condition:       1E-12

   => Auxiliary Basis Set <=

  Basis Set: (AUG-CC-PVTZ AUX)
    Blend: AUG-CC-PVTZ-JKFIT
    Number of shells: 260
    Number of basis function: 876
    Number of Cartesian functions: 1074
    Spherical Harmonics?: true
    Max angular momentum: 4

  ==> CPHF Iterations <==

  => Iterations <=

             Iter  Converged  Remaining    Residual
  CGR           1          0          1   8.450E-02
  CGR           2          0          1   1.343E-02
  CGR           3          0          1   3.239E-03
  CGR           4          0          1   8.102E-04
  CGR           5          0          1   1.731E-04
  CGR           6          0          1   3.197E-05
  CGR           7          0          1   5.698E-06
  CGR           8          0          1   1.122E-06
  CGR           9          1          0   1.488E-07

    CGRSolver converged.

  ==> DFCorrGrad: Density-Fitted Correlated Gradients <==

    OpenMP threads:              1
    Integrals threads:           1
    Memory (MB):               715
    Schwarz Cutoff:          0E+00
    Fitting Condition:       1E-12

   => Auxiliary Basis Set <=

  Basis Set: (AUG-CC-PVTZ AUX)
    Blend: AUG-CC-PVTZ-JKFIT
    Number of shells: 260
    Number of basis function: 876
    Number of Cartesian functions: 1074
    Spherical Harmonics?: true
    Max angular momentum: 4

	-----------------------------------------------------------
	 ==================> DF-MP2 Energies <==================== 
	-----------------------------------------------------------
	 Reference Energy          =    -157.3499078739287711 [Eh]
	 Singles Energy            =      -0.0000000000000001 [Eh]
	 Same-Spin Energy          =      -0.1659508040732735 [Eh]
	 Opposite-Spin Energy      =      -0.6394760163159054 [Eh]
	 Correlation Energy        =      -0.8054268203891790 [Eh]
	 Total Energy              =    -158.1553346943179577 [Eh]
	-----------------------------------------------------------
	 ================> DF-SCS-MP2 Energies <================== 
	-----------------------------------------------------------
	 SCS Same-Spin Scale       =       0.3333333333333333 [-]
	 SCS Opposite-Spin Scale   =       1.2000000000000000 [-]
	 SCS Same-Spin Energy      =      -0.0553169346910911 [Eh]
	 SCS Opposite-Spin Energy  =      -0.7673712195790865 [Eh]
	 SCS Correlation Energy    =      -0.8226881542701777 [Eh]
	 SCS Total Energy          =    -158.1725960281989387 [Eh]
	-----------------------------------------------------------


  -Total Gradient:
     Atom            X                  Y                   Z
    ------   -----------------  -----------------  -----------------
       1        0.004008004256     0.004167554728     0.010738803445
       2        0.002283632928    -0.011548502323     0.002940385505
       3       -0.011255938662    -0.002415641054     0.003485565677
       4        0.008443358110     0.008111923313    -0.024621202963
       5       -0.002117401408    -0.005554151332    -0.011624670772
       6        0.012828033392    -0.001765375888    -0.002287131753
       7       -0.012779670282     0.013529653963     0.028377795509
       8        0.006056403278     0.009696921883    -0.006480472358
       9        0.003475470051     0.006180355324     0.011362283760
      10       -0.015735370940    -0.025968963699    -0.015064004059
      11       -0.008319671793     0.009774323888    -0.000129940512
      12       -0.002761482730    -0.003666005746    -0.011064521375
      13       -0.008367447849    -0.005702956033     0.005565361733
      14        0.024242081650     0.005160862976     0.008801748167


*** tstop() called on gpu-1-9.local at Wed Jun 14 14:35:52 2017
Module time:
	user time   =     471.01 seconds =       7.85 minutes
	system time =       3.58 seconds =       0.06 minutes
	total time  =        476 seconds =       7.93 minutes
Total time:
	user time   =     471.02 seconds =       7.85 minutes
	system time =       3.58 seconds =       0.06 minutes
	total time  =        476 seconds =       7.93 minutes

			-----------------------------------------
			 OPTKING 2.0: for geometry optimizations 
			  - R.A. King,  Bethel University        
			-----------------------------------------

	Internal coordinates to be generated automatically.
	Detected frag 1 with atoms:  1 2 3 4 5 6 7 8 9 10 11 12 13 14
	---Fragment 1 Bond Connectivity---
	 1 : 4
	 2 : 4
	 3 : 4
	 4 : 1 2 3 7
	 5 : 7
	 6 : 7
	 7 : 4 5 6 10
	 8 : 10
	 9 : 10
	 10 : 7 8 9 14
	 11 : 14
	 12 : 14
	 13 : 14
	 14 : 10 11 12 13

	Assuming in current code that numbering for constraints corresponds to unified fragment.
	Fixed dihedral atom list: 
	    14    10     7     4
	---Fragment 1 Geometry and Gradient---
	 H          -1.4638570683        1.4891826055       -3.5261373052
	 H          -1.4676365206        4.3067642696       -1.8008173459
	 H           1.2970328119        2.5190833479       -2.0389228386
	 C          -0.7174152458        2.4302662197       -1.9009728309
	 H          -0.7098563413        1.8992531763        2.1241438321
	 H          -3.4745256737        0.8693524339        0.6407088178
	 C          -1.4600776160        0.9581695622        0.4989793578
	 H          -1.3958269275       -2.9403354500        1.6271458592
	 H          -0.5662371552       -2.4433374770       -1.5286967827
	 C          -0.3791542680       -1.7403593556        0.3572498979
	 H           3.1829794925       -3.5752834306        1.0035362353
	 H           2.6217308310       -0.9976969854        2.9877486749
	 H           3.4513206033       -0.5006990124       -0.1680939671
	 C           2.4327582177       -1.7006751068        1.1018019942
	             0.0040080043        0.0041675547        0.0107388034
	             0.0022836329       -0.0115485023        0.0029403855
	            -0.0112559387       -0.0024156411        0.0034855657
	             0.0084433581        0.0081119233       -0.0246212030
	            -0.0021174014       -0.0055541513       -0.0116246708
	             0.0128280334       -0.0017653759       -0.0022871318
	            -0.0127796703        0.0135296540        0.0283777955
	             0.0060564033        0.0096969219       -0.0064804724
	             0.0034754701        0.0061803553        0.0113622838
	            -0.0157353709       -0.0259689637       -0.0150640041
	            -0.0083196718        0.0097743239       -0.0001299405
	            -0.0027614827       -0.0036660057       -0.0110645214
	            -0.0083674478       -0.0057029560        0.0055653617
	             0.0242420816        0.0051608630        0.0088017482

	Previous optimization step data not found.  Starting new optimization.

	---Fragment 1 Intrafragment Coordinates---
	 - Coordinate -           - BOHR/RAD -       - ANG/DEG -
	 R(1,4)           =         2.020884	       1.069406
	 R(2,4)           =         2.023390	       1.070732
	 R(3,4)           =         2.021118	       1.069530
	 R(4,7)           =         2.911767	       1.540841
	 R(5,7)           =         2.022283	       1.070146
	 R(6,7)           =         2.021380	       1.069668
	 R(7,10)          =         2.910419	       1.540128
	 R(8,10)          =         2.021436	       1.069698
	 R(9,10)          =         2.021379	       1.069668
	 R(10,14)         =         2.909087	       1.539422
	 R(11,14)         =         2.021545	       1.069756
	 R(12,14)         =         2.021555	       1.069761
	 R(13,14)         =         2.022387	       1.070201
	 B(1,4,2)         =         1.912113	     109.555981
	 B(1,4,3)         =         1.911043	     109.494716
	 B(1,4,7)         =         1.910480	     109.462429
	 B(2,4,3)         =         1.909405	     109.400838
	 B(2,4,7)         =         1.910809	     109.481296
	 B(3,4,7)         =         1.909949	     109.431989
	 B(4,7,5)         =         1.909730	     109.419461
	 B(4,7,6)         =         1.911537	     109.523031
	 B(4,7,10)        =         1.911230	     109.505427
	 B(5,7,6)         =         1.911134	     109.499938
	 B(5,7,10)        =         1.910101	     109.440721
	 B(6,7,10)        =         1.910066	     109.438732
	 B(7,10,8)        =         1.910303	     109.452301
	 B(7,10,9)        =         1.910824	     109.482155
	 B(7,10,14)       =         1.911213	     109.504437
	 B(8,10,9)        =         1.910417	     109.458846
	 B(8,10,14)       =         1.910766	     109.478806
	 B(9,10,14)       =         1.910276	     109.450772
	 B(10,14,11)      =         1.910943	     109.488965
	 B(10,14,12)      =         1.911204	     109.503926
	 B(10,14,13)      =         1.911557	     109.524173
	 B(11,14,12)      =         1.910410	     109.458432
	 B(11,14,13)      =         1.910054	     109.438058
	 B(12,14,13)      =         1.909629	     109.413709
	 D(1,4,7,5)       =         3.139931	     179.904820
	 D(1,4,7,6)       =        -1.048245	     -60.060005
	 D(1,4,7,10)      =         1.046376	      59.952930
	 D(2,4,7,5)       =        -1.047033	     -59.990555
	 D(2,4,7,6)       =         1.047976	      60.044619
	 D(2,4,7,10)      =        -3.140588	    -179.942446
	 D(3,4,7,5)       =         1.045547	      59.905442
	 D(3,4,7,6)       =         3.140556	     179.940617
	 D(3,4,7,10)      =        -1.048008	     -60.046449
	 D(4,7,10,8)      =        -2.791837	    -159.960457
	 D(4,7,10,9)      =        -0.697791	     -39.980502
	 D(4,7,10,14)     =         1.396639	      80.021501
	 D(5,7,10,8)      =         1.398020	      80.100670
	 D(5,7,10,9)      =        -2.791120	    -159.919375
	 D(5,7,10,14)     =        -0.696690	     -39.917372
	 D(6,7,10,8)      =        -0.696316	     -39.895953
	 D(6,7,10,9)      =         1.397730	      80.084002
	 D(6,7,10,14)     =        -2.791026	    -159.913995
	 D(7,10,14,11)    =         3.141408	     179.989448
	 D(7,10,14,12)    =         1.046747	      59.974196
	 D(7,10,14,13)    =        -1.047335	     -60.007849
	 D(8,10,14,11)    =         1.046982	      59.987626
	 D(8,10,14,12)    =        -1.047680	     -60.027626
	 D(8,10,14,13)    =         3.141424	     179.990329
	 D(9,10,14,11)    =        -1.047012	     -59.989345
	 D(9,10,14,12)    =         3.141512	     179.995403
	 D(9,10,14,13)    =         1.047431	      60.013359

	Current energy   :      -158.1553346943

	Generating empirical Hessian (Schlegel '84) for each fragment.
	Adding user-defined constraint: Fragment 1; Coordinate 49:
		Value =     1.396639; Fixed value    =     1.396263
		Force =    -0.000188; Force constant =     0.500000
	Removing off-diagonal coupling between coordinate 49 and others.
	Taking RFO optimization step.
	Going to follow RFO solution 1.
	Using RFO vector 1.

	Determining step-restricting scale parameter for RS-RFO.
	Maximum step size allowed    0.10000

	 Iter      |step|        alpha        rfo_root  
	------------------------------------------------
	    0     0.19176       1.00000           1
	    1     0.15273       5.51420           1
	    2     0.12182      16.32598           1
	    3     0.10556      28.47877           1
	    4     0.10050      33.94991           1
	    5     0.10000      34.54180           1
	------------------------------------------------
	Norm of target step-size    0.10000
	Projected energy change by RFO approximation:        -0.0043683989

	Back-transformation to cartesian coordinates...
	Successfully converged to displaced geometry.

	--- Internal Coordinate Step in ANG or DEG, aJ/ANG or AJ/DEG ---
	 ---------------------------------------------------------------------------
	   Coordinate                Previous        Force       Change         New 
	   ----------                --------       ------       ------       ------
	    1 R(1,4)          =      1.069406     0.099335     0.012276     1.081682
	    2 R(2,4)          =      1.070732     0.094014     0.011656     1.082388
	    3 R(3,4)          =      1.069530     0.095263     0.011776     1.081306
	    4 R(4,7)          =      1.540841    -0.050927    -0.007587     1.533254
	    5 R(5,7)          =      1.070146     0.104731     0.012966     1.083113
	    6 R(6,7)          =      1.069668     0.106006     0.013109     1.082777
	    7 R(7,10)         =      1.540128    -0.033067    -0.004919     1.535208
	    8 R(8,10)         =      1.069698     0.106061     0.013117     1.082814
	    9 R(9,10)         =      1.069668     0.107697     0.013318     1.082986
	   10 R(10,14)        =      1.539422    -0.045488    -0.006757     1.532665
	   11 R(11,14)        =      1.069756     0.100060     0.012376     1.082132
	   12 R(12,14)        =      1.069761     0.097672     0.012081     1.081842
	   13 R(13,14)        =      1.070201     0.091389     0.011316     1.081517
	   14 B(1,4,2)        =    109.555981    -0.000227    -0.558509   108.997472
	   15 B(1,4,3)        =    109.494716    -0.000184    -0.459233   109.035484
	   16 B(1,4,7)        =    109.462429     0.000073     0.156320   109.618750
	   17 B(2,4,3)        =    109.400838    -0.000299    -0.730164   108.670674
	   18 B(2,4,7)        =    109.481296     0.000370     0.916947   110.398244
	   19 B(3,4,7)        =    109.431989     0.000268     0.657812   110.089800
	   20 B(4,7,5)        =    109.419461    -0.000128    -0.196707   109.222754
	   21 B(4,7,6)        =    109.523031    -0.000221    -0.462868   109.060163
	   22 B(4,7,10)       =    109.505427     0.000652     1.436810   110.942236
	   23 B(5,7,6)        =    109.499938    -0.000003    -0.303401   109.196536
	   24 B(5,7,10)       =    109.440721    -0.000220    -0.446350   108.994371
	   25 B(6,7,10)       =    109.438732    -0.000080    -0.038149   109.400582
	   26 B(7,10,8)       =    109.452301    -0.000087    -0.057179   109.395122
	   27 B(7,10,9)       =    109.482155    -0.000225    -0.461443   109.020713
	   28 B(7,10,14)      =    109.504437     0.000662     1.457043   110.961480
	   29 B(8,10,9)       =    109.458846     0.000000    -0.294365   109.164481
	   30 B(8,10,14)      =    109.478806    -0.000218    -0.450473   109.028333
	   31 B(9,10,14)      =    109.450772    -0.000132    -0.205081   109.245692
	   32 B(10,14,11)     =    109.488965     0.000374     0.927724   110.416689
	   33 B(10,14,12)     =    109.503926     0.000063     0.134422   109.638348
	   34 B(10,14,13)     =    109.524173     0.000257     0.629919   110.154092
	   35 B(11,14,12)     =    109.458432    -0.000219    -0.533889   108.924543
	   36 B(11,14,13)     =    109.438058    -0.000302    -0.740681   108.697377
	   37 B(12,14,13)     =    109.413709    -0.000174    -0.436842   108.976868
	   38 D(1,4,7,5)      =    179.904820     0.000022     0.352129   180.256950
	   39 D(1,4,7,6)      =    -60.060005    -0.000028    -0.415163   -60.475168
	   40 D(1,4,7,10)     =     59.952930     0.000010     0.137333    60.090263
	   41 D(2,4,7,5)      =    -59.990555     0.000020     0.330942   -59.659613
	   42 D(2,4,7,6)      =     60.044619    -0.000030    -0.436351    59.608269
	   43 D(2,4,7,10)     =   -179.942446     0.000008     0.116146  -179.826300
	   44 D(3,4,7,5)      =     59.905442     0.000025     0.413783    60.319225
	   45 D(3,4,7,6)      =    179.940617    -0.000025    -0.353510   179.587107
	   46 D(3,4,7,10)     =    -60.046449     0.000014     0.198987   -59.847462
	   47 D(4,7,10,8)     =   -159.960457     0.000017     0.240555  -159.719902
	   48 D(4,7,10,9)     =    -39.980502    -0.000027    -0.431834   -40.412337
	   49 D(4,7,10,14)    =     80.021501    -0.000002    -0.073988    79.947512
	   50 D(5,7,10,8)     =     80.100670    -0.000008    -0.123017    79.977653
	   51 D(5,7,10,9)     =   -159.919375    -0.000051    -0.795407  -160.714782
	   52 D(5,7,10,14)    =    -39.917372    -0.000027    -0.437561   -40.354933
	   53 D(6,7,10,8)     =    -39.895953     0.000035     0.539600   -39.356352
	   54 D(6,7,10,9)     =     80.084002    -0.000008    -0.132789    79.951213
	   55 D(6,7,10,14)    =   -159.913995     0.000016     0.225057  -159.688938
	   56 D(7,10,14,11)   =    179.989448     0.000009     0.132357   180.121805
	   57 D(7,10,14,12)   =     59.974196     0.000009     0.130398    60.104594
	   58 D(7,10,14,13)   =    -60.007849     0.000013     0.194698   -59.813150
	   59 D(8,10,14,11)   =     59.987626    -0.000029    -0.415900    59.571725
	   60 D(8,10,14,12)   =    -60.027626    -0.000029    -0.417859   -60.445485
	   61 D(8,10,14,13)   =    179.990329    -0.000025    -0.353559   179.636770
	   62 D(9,10,14,11)   =    -59.989345     0.000020     0.337391   -59.651953
	   63 D(9,10,14,12)   =    179.995403     0.000021     0.335432   180.330836
	   64 D(9,10,14,13)   =     60.013359     0.000025     0.399733    60.413091
	 ---------------------------------------------------------------------------
	Successfully symmetrized geometry.
	 Forces used to impose fixed constraints are not included.
	  Forces zeroed: 49 

  ==> Convergence Check <==

  Measures of convergence in internal coordinates in au.
  Criteria marked as inactive (o), active & met (*), and active & unmet ( ).
  --------------------------------------------------------------------------------------------- ~
   Step     Total Energy     Delta E     MAX Force     RMS Force      MAX Disp      RMS Disp    ~
  --------------------------------------------------------------------------------------------- ~
    Convergence Criteria    1.00e-06 *    3.00e-04 *             o    1.20e-03 *             o  ~
  --------------------------------------------------------------------------------------------- ~
      1    -158.15533469   -1.58e+02      1.31e-02      5.50e-03 o    2.54e-02      1.25e-02 o  ~
  ---------------------------------------------------------------------------------------------

	Writing optimization data to binary file.
	Structure for next step:
	Cartesian Geometry (in Angstrom)
	    H    -0.7800780929   0.7606794768  -1.9016316127
	    H    -0.8151211396   2.2764101940  -1.0043108493
	    H     0.6783821153   1.3557333129  -1.1135825145
	    C    -0.3971050964   1.2783971306  -1.0325309409
	    H    -0.3929074944   1.0305702030   1.1019707366
	    H    -1.8542606518   0.4433400409   0.3042352274
	    C    -0.7753758260   0.5045076074   0.2358825015
	    H    -0.7331736747  -1.5426933790   0.8996630037
	    H    -0.2768542967  -1.3154416056  -0.7901316193
	    C    -0.1848429062  -0.9123578826   0.2108254988
	    H     1.7010259630  -1.8996591181   0.5928686325
	    H     1.3920537350  -0.5011787850   1.6173418342
	    H     1.8599597366  -0.2772080565  -0.0654881791
	    C     1.2933404684  -0.8975182190   0.6155673332
			--------------------------
			 OPTKING Finished Execution 
			--------------------------

    Structure for next step:
    Molecular point group: c1
    Full point group: C1

    Geometry (in Angstrom), charge = 0, multiplicity = 1:

    H           -0.780376341925     0.760516205673    -1.901546515019
    H           -0.815419388618     2.276246922836    -1.004225751611
    H            0.678083866250     1.355570041778    -1.113497416753
    C           -0.397403345400     1.278233859438    -1.032445843197
    H           -0.393205743486     1.030406931906     1.102055834325
    H           -1.854558900819     0.443176769726     0.304320325160
    C           -0.775674075056     0.504344336250     0.235967599237
    H           -0.733471923743    -1.542856650173     0.899748101451
    H           -0.277152545780    -1.315604876715    -0.790046521586
    C           -0.185141155283    -0.912521153748     0.210910596535
    H            1.700727713943    -1.899822389201     0.592953730224
    H            1.391755485988    -0.501342056107     1.617426931951
    H            1.859661487601    -0.277371327600    -0.065403081366
    C            1.293042219378    -0.897681490133     0.615652430934

gradient() will perform analytic gradient computation.

*** tstart() called on gpu-1-9.local
*** at Wed Jun 14 14:35:52 2017

    SCF Algorithm Type (re)set to DF.

*** tstart() called on gpu-1-9.local
*** at Wed Jun 14 14:35:52 2017

   => Loading Basis Set <=

    Name: AUG-CC-PVTZ
    Role: ORBITAL
    Keyword: BASIS
    atoms 1-3, 5-6, 8-9, 11-13 entry H          line    34 file /cbio/jclab/home/chayas/anaconda/envs/py35/share/psi4/basis/aug-cc-pvtz.gbs 
    atoms 4, 7, 10, 14         entry C          line   221 file /cbio/jclab/home/chayas/anaconda/envs/py35/share/psi4/basis/aug-cc-pvtz.gbs 


         ---------------------------------------------------------
                                   SCF
            by Justin Turney, Rob Parrish, and Andy Simmonett
                              RHF Reference
                        1 Threads,    953 MiB Core
         ---------------------------------------------------------

  ==> Geometry <==

    Molecular point group: c1
    Full point group: C1

    Geometry (in Angstrom), charge = 0, multiplicity = 1:

       Center              X                  Y                   Z               Mass       
    ------------   -----------------  -----------------  -----------------  -----------------
           H         -0.780376341925     0.760516205673    -1.901546515019     1.007825032070
           H         -0.815419388618     2.276246922836    -1.004225751611     1.007825032070
           H          0.678083866250     1.355570041778    -1.113497416753     1.007825032070
           C         -0.397403345400     1.278233859438    -1.032445843197    12.000000000000
           H         -0.393205743486     1.030406931906     1.102055834325     1.007825032070
           H         -1.854558900819     0.443176769726     0.304320325160     1.007825032070
           C         -0.775674075056     0.504344336250     0.235967599237    12.000000000000
           H         -0.733471923743    -1.542856650173     0.899748101451     1.007825032070
           H         -0.277152545780    -1.315604876715    -0.790046521586     1.007825032070
           C         -0.185141155283    -0.912521153748     0.210910596535    12.000000000000
           H          1.700727713943    -1.899822389201     0.592953730224     1.007825032070
           H          1.391755485988    -0.501342056107     1.617426931951     1.007825032070
           H          1.859661487601    -0.277371327600    -0.065403081366     1.007825032070
           C          1.293042219378    -0.897681490133     0.615652430934    12.000000000000

  Running in c1 symmetry.

  Rotational constants: A =      0.46438  B =      0.15514  C =      0.13814 [cm^-1]
  Rotational constants: A =  13921.77639  B =   4651.00732  C =   4141.23209 [MHz]
  Nuclear repulsion =  133.241528731441690

  Charge       = 0
  Multiplicity = 1
  Electrons    = 34
  Nalpha       = 17
  Nbeta        = 17

  ==> Algorithm <==

  SCF Algorithm Type is DF.
  DIIS enabled.
  MOM disabled.
  Fractional occupation disabled.
  Guess Type is READ.
  Energy threshold   = 1.00e-10
  Density threshold  = 1.00e-10
  Integral threshold = 0.00e+00

  ==> Primary Basis <==

  Basis Set: AUG-CC-PVTZ
    Blend: AUG-CC-PVTZ
    Number of shells: 146
    Number of basis function: 414
    Number of Cartesian functions: 470
    Spherical Harmonics?: true
    Max angular momentum: 3

   => Loading Basis Set <=

    Name: (AUG-CC-PVTZ AUX)
    Role: JKFIT
    Keyword: DF_BASIS_SCF
    atoms 1-3, 5-6, 8-9, 11-13 entry H          line    69 file /cbio/jclab/home/chayas/anaconda/envs/py35/share/psi4/basis/aug-cc-pvtz-jkfit.gbs 
    atoms 4, 7, 10, 14         entry C          line   161 file /cbio/jclab/home/chayas/anaconda/envs/py35/share/psi4/basis/aug-cc-pvtz-jkfit.gbs 

  Reading orbitals from file 180, no projection.

  ==> Pre-Iterations <==

   -------------------------------------------------------
    Irrep   Nso     Nmo     Nalpha   Nbeta   Ndocc  Nsocc
   -------------------------------------------------------
     A        414     414       0       0       0       0
   -------------------------------------------------------
    Total     414     414      17      17      17       0
   -------------------------------------------------------

  ==> Integral Setup <==

  ==> DFJK: Density-Fitted J/K Matrices <==

    J tasked:                  Yes
    K tasked:                  Yes
    wK tasked:                  No
    OpenMP threads:              1
    Integrals threads:           1
    Memory (MB):               715
    Algorithm:                Core
    Integral Cache:           NONE
    Schwarz Cutoff:          1E-12
    Fitting Condition:       1E-12

   => Auxiliary Basis Set <=

  Basis Set: (AUG-CC-PVTZ AUX)
    Blend: AUG-CC-PVTZ-JKFIT
    Number of shells: 260
    Number of basis function: 876
    Number of Cartesian functions: 1074
    Spherical Harmonics?: true
    Max angular momentum: 4

  Minimum eigenvalue in the overlap matrix is 6.7363952584E-06.
  Using Symmetric Orthogonalization.

  SCF Guess: Orbitals guess was supplied from a previous computation.

  ==> Iterations <==

                           Total Energy        Delta E     RMS |[F,P]|

   @DF-RHF iter   0:  -157.26464400716046   -1.57265e+02   1.66844e-04 
   @DF-RHF iter   1:  -157.35208748307855   -8.74435e-02   7.02461e-05 
   @DF-RHF iter   2:  -157.35260040851466   -5.12925e-04   3.67868e-05 DIIS
   @DF-RHF iter   3:  -157.35271664668556   -1.16238e-04   6.01107e-06 DIIS
   @DF-RHF iter   4:  -157.35272498852936   -8.34184e-06   1.28961e-06 DIIS
   @DF-RHF iter   5:  -157.35272532110551   -3.32576e-07   4.09188e-07 DIIS
   @DF-RHF iter   6:  -157.35272534631196   -2.52064e-08   8.71629e-08 DIIS
   @DF-RHF iter   7:  -157.35272534780245   -1.49049e-09   1.75641e-08 DIIS
   @DF-RHF iter   8:  -157.35272534786267   -6.02256e-11   4.10591e-09 DIIS
   @DF-RHF iter   9:  -157.35272534786637   -3.69482e-12   8.21411e-10 DIIS
   @DF-RHF iter  10:  -157.35272534786682   -4.54747e-13   1.56867e-10 DIIS
   @DF-RHF iter  11:  -157.35272534786748   -6.53699e-13   3.21286e-11 DIIS

  ==> Post-Iterations <==

    Orbital Energies (a.u.)
    -----------------------

    Doubly Occupied:                                                      

       1A    -11.210302     2A    -11.209706     3A    -11.204073  
       4A    -11.204044     5A     -1.071934     6A     -0.976027  
       7A     -0.869369     8A     -0.781707     9A     -0.626909  
      10A     -0.622665    11A     -0.577713    12A     -0.536985  
      13A     -0.526642    14A     -0.504226    15A     -0.469396  
      16A     -0.456726    17A     -0.452372  

    Virtual:                                                              

      18A      0.032087    19A      0.037771    20A      0.039501  
      21A      0.041158    22A      0.057429    23A      0.058910  
      24A      0.059585    25A      0.061083    26A      0.077755  
      27A      0.085690    28A      0.102562    29A      0.122184  
      30A      0.122200    31A      0.126119    32A      0.128933  
      33A      0.132279    34A      0.138791    35A      0.144316  
      36A      0.154655    37A      0.155201    38A      0.162092  
      39A      0.166435    40A      0.173123    41A      0.192263  
      42A      0.212633    43A      0.214602    44A      0.233628  
      45A      0.246054    46A      0.255831    47A      0.257693  
      48A      0.275772    49A      0.277821    50A      0.299954  
      51A      0.300382    52A      0.304209    53A      0.310695  
      54A      0.322354    55A      0.330958    56A      0.331324  
      57A      0.346045    58A      0.359781    59A      0.361227  
      60A      0.361244    61A      0.363656    62A      0.369725  
      63A      0.381468    64A      0.387252    65A      0.387652  
      66A      0.394661    67A      0.404925    68A      0.407832  
      69A      0.420243    70A      0.428037    71A      0.428314  
      72A      0.437194    73A      0.438280    74A      0.443724  
      75A      0.450343    76A      0.458064    77A      0.469108  
      78A      0.474942    79A      0.477891    80A      0.481705  
      81A      0.489876    82A      0.494858    83A      0.499931  
      84A      0.506746    85A      0.517866    86A      0.521060  
      87A      0.526074    88A      0.529439    89A      0.536351  
      90A      0.550448    91A      0.558269    92A      0.573208  
      93A      0.577109    94A      0.590422    95A      0.598163  
      96A      0.603210    97A      0.605183    98A      0.615545  
      99A      0.622774   100A      0.638089   101A      0.641556  
     102A      0.650377   103A      0.659932   104A      0.680133  
     105A      0.689243   106A      0.719125   107A      0.743854  
     108A      0.788344   109A      0.795032   110A      0.816816  
     111A      0.817108   112A      0.828098   113A      0.835204  
     114A      0.837262   115A      0.839666   116A      0.858698  
     117A      0.861433   118A      0.867768   119A      0.880492  
     120A      0.882944   121A      0.886048   122A      0.892725  
     123A      0.911948   124A      0.914553   125A      0.919750  
     126A      0.929208   127A      0.935645   128A      0.945462  
     129A      0.951224   130A      0.972406   131A      0.979356  
     132A      0.984223   133A      0.994561   134A      1.005055  
     135A      1.012602   136A      1.013582   137A      1.032693  
     138A      1.044811   139A      1.054067   140A      1.062715  
     141A      1.071066   142A      1.089459   143A      1.107026  
     144A      1.111678   145A      1.118814   146A      1.127924  
     147A      1.128834   148A      1.146125   149A      1.150894  
     150A      1.156936   151A      1.161954   152A      1.190165  
     153A      1.192283   154A      1.194806   155A      1.195080  
     156A      1.209753   157A      1.228916   158A      1.237867  
     159A      1.248404   160A      1.261661   161A      1.267684  
     162A      1.275159   163A      1.286702   164A      1.290245  
     165A      1.310763   166A      1.331007   167A      1.333830  
     168A      1.343918   169A      1.365268   170A      1.371407  
     171A      1.375941   172A      1.389016   173A      1.409318  
     174A      1.436691   175A      1.438432   176A      1.446590  
     177A      1.464774   178A      1.478949   179A      1.485049  
     180A      1.519152   181A      1.531045   182A      1.544444  
     183A      1.547711   184A      1.556825   185A      1.568616  
     186A      1.587022   187A      1.596711   188A      1.611103  
     189A      1.617553   190A      1.648456   191A      1.661029  
     192A      1.675261   193A      1.676468   194A      1.684108  
     195A      1.690518   196A      1.707604   197A      1.710905  
     198A      1.729772   199A      1.735147   200A      1.748743  
     201A      1.756454   202A      1.767003   203A      1.775452  
     204A      1.779334   205A      1.795205   206A      1.806349  
     207A      1.813902   208A      1.816274   209A      1.831932  
     210A      1.860880   211A      1.861409   212A      1.872575  
     213A      1.874676   214A      1.910675   215A      1.948102  
     216A      1.954922   217A      1.966069   218A      1.981709  
     219A      1.988230   220A      1.994823   221A      2.014854  
     222A      2.022015   223A      2.053835   224A      2.056463  
     225A      2.067037   226A      2.071815   227A      2.099297  
     228A      2.109557   229A      2.134731   230A      2.145831  
     231A      2.161909   232A      2.196434   233A      2.201539  
     234A      2.222455   235A      2.228939   236A      2.254201  
     237A      2.272471   238A      2.280106   239A      2.304747  
     240A      2.307834   241A      2.313239   242A      2.319728  
     243A      2.355463   244A      2.363090   245A      2.384708  
     246A      2.395378   247A      2.425923   248A      2.457098  
     249A      2.474123   250A      2.517948   251A      2.527199  
     252A      2.531421   253A      2.562806   254A      2.585895  
     255A      2.592189   256A      2.602209   257A      2.726094  
     258A      2.836009   259A      2.968150   260A      3.051788  
     261A      3.221868   262A      3.267653   263A      3.272935  
     264A      3.381960   265A      3.385804   266A      3.412693  
     267A      3.458714   268A      3.489633   269A      3.512242  
     270A      3.523837   271A      3.535642   272A      3.543444  
     273A      3.558413   274A      3.598589   275A      3.611812  
     276A      3.614139   277A      3.619923   278A      3.689056  
     279A      3.691696   280A      3.700678   281A      3.710639  
     282A      3.711947   283A      3.722148   284A      3.763332  
     285A      3.776826   286A      3.783971   287A      3.806531  
     288A      3.807118   289A      3.825197   290A      3.837715  
     291A      3.851111   292A      3.851567   293A      3.866222  
     294A      3.899698   295A      3.920389   296A      3.946132  
     297A      3.963115   298A      3.980096   299A      3.980556  
     300A      3.989559   301A      3.991372   302A      4.027612  
     303A      4.031038   304A      4.037194   305A      4.047054  
     306A      4.057066   307A      4.076116   308A      4.105619  
     309A      4.116193   310A      4.163040   311A      4.184654  
     312A      4.190821   313A      4.201261   314A      4.232499  
     315A      4.241943   316A      4.254955   317A      4.260241  
     318A      4.295558   319A      4.304535   320A      4.315162  
     321A      4.340067   322A      4.344338   323A      4.361336  
     324A      4.417038   325A      4.421747   326A      4.434122  
     327A      4.479342   328A      4.525990   329A      4.577960  
     330A      4.578501   331A      4.619252   332A      4.629607  
     333A      4.665309   334A      4.683260   335A      4.704097  
     336A      4.728354   337A      4.746851   338A      4.776911  
     339A      4.804993   340A      4.810027   341A      4.832844  
     342A      4.863104   343A      4.875034   344A      4.881409  
     345A      4.881977   346A      4.917574   347A      4.927689  
     348A      4.928936   349A      4.967289   350A      4.980558  
     351A      4.998277   352A      5.020846   353A      5.055431  
     354A      5.079885   355A      5.115216   356A      5.129695  
     357A      5.139710   358A      5.179657   359A      5.194632  
     360A      5.230884   361A      5.234275   362A      5.255460  
     363A      5.272377   364A      5.278917   365A      5.296953  
     366A      5.335571   367A      5.375470   368A      5.398683  
     369A      5.402475   370A      5.447778   371A      5.451813  
     372A      5.465426   373A      5.482189   374A      5.485594  
     375A      5.545679   376A      5.583126   377A      5.595109  
     378A      5.612300   379A      5.633254   380A      5.671430  
     381A      5.711318   382A      5.719737   383A      5.749473  
     384A      5.799844   385A      5.805237   386A      5.808237  
     387A      5.832172   388A      5.903569   389A      5.919856  
     390A      6.022902   391A      6.074528   392A      6.103239  
     393A      6.109299   394A      6.177466   395A      6.223739  
     396A      6.229665   397A      6.267616   398A      6.298065  
     399A      6.302003   400A      6.342819   401A      6.351113  
     402A      6.421292   403A      6.592311   404A      6.594302  
     405A      6.770387   406A      6.772447   407A      6.814736  
     408A      6.872125   409A      6.931573   410A      6.974025  
     411A     17.909155   412A     18.106787   413A     18.607568  
     414A     18.682548  

    Final Occupation by Irrep:
              A 
    DOCC [    17 ]

  Energy converged.

  @DF-RHF Final Energy:  -157.35272534786748

   => Energetics <=

    Nuclear Repulsion Energy =            133.2415287314416901
    One-Electron Energy =                -474.5869175098389405
    Two-Electron Energy =                 183.9926634305297739
    DFT Exchange-Correlation Energy =       0.0000000000000000
    Empirical Dispersion Energy =           0.0000000000000000
    PCM Polarization Energy =               0.0000000000000000
    EFP Energy =                            0.0000000000000000
    Total Energy =                       -157.3527253478674766



Properties will be evaluated at   0.000000,   0.000000,   0.000000 Bohr

Properties computed using the SCF density matrix

  Nuclear Dipole Moment: (a.u.)
     X:     0.7275      Y:     0.3084      Z:    -0.3358

  Electronic Dipole Moment: (a.u.)
     X:    -0.7604      Y:    -0.3226      Z:     0.3513

  Dipole Moment: (a.u.)
     X:    -0.0329      Y:    -0.0142      Z:     0.0155     Total:     0.0390

  Dipole Moment: (Debye)
     X:    -0.0836      Y:    -0.0361      Z:     0.0393     Total:     0.0992


*** tstop() called on gpu-1-9.local at Wed Jun 14 14:37:20 2017
Module time:
	user time   =      87.32 seconds =       1.46 minutes
	system time =       0.45 seconds =       0.01 minutes
	total time  =         88 seconds =       1.47 minutes
Total time:
	user time   =     558.43 seconds =       9.31 minutes
	system time =       4.12 seconds =       0.07 minutes
	total time  =        564 seconds =       9.40 minutes

  //>>>>>>>>>>>>>>>>>>>>>>>>>>>>>>>>>>>//
  //               DFMP2               //
  //<<<<<<<<<<<<<<<<<<<<<<<<<<<<<<<<<<<//

   => Loading Basis Set <=

    Name: (AUG-CC-PVTZ AUX)
    Role: RIFIT
    Keyword: DF_BASIS_MP2
    atoms 1-3, 5-6, 8-9, 11-13 entry H          line    29 file /cbio/jclab/home/chayas/anaconda/envs/py35/share/psi4/basis/aug-cc-pvtz-ri.gbs 
    atoms 4, 7, 10, 14         entry C          line   147 file /cbio/jclab/home/chayas/anaconda/envs/py35/share/psi4/basis/aug-cc-pvtz-ri.gbs 

	 --------------------------------------------------------
	                          DF-MP2                         
	      2nd-Order Density-Fitted Moller-Plesset Theory     
	              RMP2 Wavefunction,   1 Threads             
	                                                         
	        Rob Parrish, Justin Turney, Andy Simmonett,      
	           Ed Hohenstein, and C. David Sherrill          
	 --------------------------------------------------------

   => Auxiliary Basis Set <=

  Basis Set: (AUG-CC-PVTZ AUX)
    Blend: AUG-CC-PVTZ-RI
    Number of shells: 252
    Number of basis function: 884
    Number of Cartesian functions: 1094
    Spherical Harmonics?: true
    Max angular momentum: 4

	 --------------------------------------------------------
	                 NBF =   414, NAUX =   884
	 --------------------------------------------------------
	   CLASS    FOCC     OCC    AOCC    AVIR     VIR    FVIR
	   PAIRS       0      17      17     397     397       0
	 --------------------------------------------------------


         ------------------------------------------------------------
                                     CPHF                           
                                  Rob Parrish                       
         ------------------------------------------------------------

  ==> Geometry <==

    Molecular point group: c1
    Full point group: C1

    Geometry (in Angstrom), charge = 0, multiplicity = 1:

       Center              X                  Y                   Z               Mass       
    ------------   -----------------  -----------------  -----------------  -----------------
           H         -0.780376341925     0.760516205673    -1.901546515019     1.007825032070
           H         -0.815419388618     2.276246922836    -1.004225751611     1.007825032070
           H          0.678083866250     1.355570041778    -1.113497416753     1.007825032070
           C         -0.397403345400     1.278233859438    -1.032445843197    12.000000000000
           H         -0.393205743486     1.030406931906     1.102055834325     1.007825032070
           H         -1.854558900819     0.443176769726     0.304320325160     1.007825032070
           C         -0.775674075056     0.504344336250     0.235967599237    12.000000000000
           H         -0.733471923743    -1.542856650173     0.899748101451     1.007825032070
           H         -0.277152545780    -1.315604876715    -0.790046521586     1.007825032070
           C         -0.185141155283    -0.912521153748     0.210910596535    12.000000000000
           H          1.700727713943    -1.899822389201     0.592953730224     1.007825032070
           H          1.391755485988    -0.501342056107     1.617426931951     1.007825032070
           H          1.859661487601    -0.277371327600    -0.065403081366     1.007825032070
           C          1.293042219378    -0.897681490133     0.615652430934    12.000000000000

  Nuclear repulsion =  133.241528731441662
  Reference energy  = -157.352725347867477

  ==> Basis Set <==

  Basis Set: AUG-CC-PVTZ
    Blend: AUG-CC-PVTZ
    Number of shells: 146
    Number of basis function: 414
    Number of Cartesian functions: 470
    Spherical Harmonics?: true
    Max angular momentum: 3

  ==> CGRSolver (by Rob Parrish) <==

   Number of roots    =         1
   Preconditioning    =    JACOBI
   Convergence cutoff =     1E-06
   Maximum iterations =       100

  ==> CPHFRHamiltonian (by Rob Parrish) <== 

  ==> DFJK: Density-Fitted J/K Matrices <==

    J tasked:                  Yes
    K tasked:                  Yes
    wK tasked:                  No
    OpenMP threads:              1
    Integrals threads:           1
    Memory (MB):               715
    Algorithm:                Core
    Integral Cache:           NONE
    Schwarz Cutoff:          1E-12
    Fitting Condition:       1E-12

   => Auxiliary Basis Set <=

  Basis Set: (AUG-CC-PVTZ AUX)
    Blend: AUG-CC-PVTZ-JKFIT
    Number of shells: 260
    Number of basis function: 876
    Number of Cartesian functions: 1074
    Spherical Harmonics?: true
    Max angular momentum: 4

  ==> CPHF Iterations <==

  => Iterations <=

             Iter  Converged  Remaining    Residual
  CGR           1          0          1   8.577E-02
  CGR           2          0          1   1.359E-02
  CGR           3          0          1   3.278E-03
  CGR           4          0          1   8.197E-04
  CGR           5          0          1   1.766E-04
  CGR           6          0          1   3.228E-05
  CGR           7          0          1   5.647E-06
  CGR           8          0          1   1.099E-06
  CGR           9          1          0   1.417E-07

    CGRSolver converged.

  ==> DFCorrGrad: Density-Fitted Correlated Gradients <==

    OpenMP threads:              1
    Integrals threads:           1
    Memory (MB):               715
    Schwarz Cutoff:          0E+00
    Fitting Condition:       1E-12

   => Auxiliary Basis Set <=

  Basis Set: (AUG-CC-PVTZ AUX)
    Blend: AUG-CC-PVTZ-JKFIT
    Number of shells: 260
    Number of basis function: 876
    Number of Cartesian functions: 1074
    Spherical Harmonics?: true
    Max angular momentum: 4

	-----------------------------------------------------------
	 ==================> DF-MP2 Energies <==================== 
	-----------------------------------------------------------
	 Reference Energy          =    -157.3527253478674766 [Eh]
	 Singles Energy            =      -0.0000000000000000 [Eh]
	 Same-Spin Energy          =      -0.1657804781142659 [Eh]
	 Opposite-Spin Energy      =      -0.6397894982332749 [Eh]
	 Correlation Energy        =      -0.8055699763475408 [Eh]
	 Total Energy              =    -158.1582953242150040 [Eh]
	-----------------------------------------------------------
	 ================> DF-SCS-MP2 Energies <================== 
	-----------------------------------------------------------
	 SCS Same-Spin Scale       =       0.3333333333333333 [-]
	 SCS Opposite-Spin Scale   =       1.2000000000000000 [-]
	 SCS Same-Spin Energy      =      -0.0552601593714220 [Eh]
	 SCS Opposite-Spin Energy  =      -0.7677473978799298 [Eh]
	 SCS Correlation Energy    =      -0.8230075572513518 [Eh]
	 SCS Total Energy          =    -158.1757329051188208 [Eh]
	-----------------------------------------------------------


  -Total Gradient:
     Atom            X                  Y                   Z
    ------   -----------------  -----------------  -----------------
       1        0.000817582845     0.000629305647     0.004016155835
       2        0.000215872267    -0.003472388962     0.001862607591
       3       -0.003547238719    -0.001280641805     0.002317355881
       4        0.004005297128     0.004219382666    -0.013174821084
       5        0.001619118468    -0.001978146353    -0.004826799537
       6        0.003775052636    -0.001483226855    -0.002136088639
       7       -0.006997026327     0.007337684063     0.015370791859
       8        0.002173789182     0.003977612200    -0.000619885271
       9        0.002697223721     0.003800173448     0.002917114482
      10       -0.008539942158    -0.013991082518    -0.008090152525
      11       -0.003327772795     0.002347094863    -0.000343266471
      12       -0.001851686405    -0.001108882931    -0.003428150459
      13       -0.003741140118    -0.001734922309     0.001115253252
      14        0.012700870275     0.002738038847     0.005019885088


*** tstop() called on gpu-1-9.local at Wed Jun 14 14:43:45 2017
Module time:
	user time   =     469.49 seconds =       7.82 minutes
	system time =       3.18 seconds =       0.05 minutes
	total time  =        473 seconds =       7.88 minutes
Total time:
	user time   =     940.60 seconds =      15.68 minutes
	system time =       6.85 seconds =       0.11 minutes
	total time  =        949 seconds =      15.82 minutes

			-----------------------------------------
			 OPTKING 2.0: for geometry optimizations 
			  - R.A. King,  Bethel University        
			-----------------------------------------

	Previous internal coordinate definitions found.
	---Fragment 1 Geometry and Gradient---
	 H          -1.4746975668        1.4371673483       -3.5934021423
	 H          -1.5409193279        4.3014832950       -1.8977116461
	 H           1.2813928023        2.5616561329       -2.1042051673
	 C          -0.7509834871        2.4155119281       -1.9510398907
	 H          -0.7430511691        1.9471869067        2.0825837100
	 H          -3.5046084199        0.8374827232        0.5750820712
	 C          -1.4658115702        0.9530726722        0.4459141388
	 H          -1.3860610620       -2.9155765311        1.7002775003
	 H          -0.5237424086       -2.4861329161       -1.4929715580
	 C          -0.3498660794       -1.7244150710        0.3985632660
	 H           3.2139096060       -3.5901440167        1.1205201596
	 H           2.6300367125       -0.9473991849        3.0564939413
	 H           3.5142509114       -0.5241558463       -0.1235939120
	 C           2.4434956729       -1.6963721709        1.1634144875
	             0.0008175828        0.0006293056        0.0040161558
	             0.0002158723       -0.0034723890        0.0018626076
	            -0.0035472387       -0.0012806418        0.0023173559
	             0.0040052971        0.0042193827       -0.0131748211
	             0.0016191185       -0.0019781464       -0.0048267995
	             0.0037750526       -0.0014832269       -0.0021360886
	            -0.0069970263        0.0073376841        0.0153707919
	             0.0021737892        0.0039776122       -0.0006198853
	             0.0026972237        0.0038001734        0.0029171145
	            -0.0085399422       -0.0139910825       -0.0080901525
	            -0.0033277728        0.0023470949       -0.0003432665
	            -0.0018516864       -0.0011088829       -0.0034281505
	            -0.0037411401       -0.0017349223        0.0011152533
	             0.0127008703        0.0027380388        0.0050198851

	---Fragment 1 Intrafragment Coordinates---
	 - Coordinate -           - BOHR/RAD -       - ANG/DEG -
	 R(1,4)           =         2.044083	       1.081682
	 R(2,4)           =         2.045417	       1.082388
	 R(3,4)           =         2.043372	       1.081306
	 R(4,7)           =         2.897429	       1.533254
	 R(5,7)           =         2.046786	       1.083113
	 R(6,7)           =         2.046152	       1.082777
	 R(7,10)          =         2.901123	       1.535208
	 R(8,10)          =         2.046222	       1.082814
	 R(9,10)          =         2.046546	       1.082986
	 R(10,14)         =         2.896317	       1.532665
	 R(11,14)         =         2.044933	       1.082132
	 R(12,14)         =         2.044384	       1.081842
	 R(13,14)         =         2.043771	       1.081517
	 B(1,4,2)         =         1.902365	     108.997472
	 B(1,4,3)         =         1.903028	     109.035484
	 B(1,4,7)         =         1.913208	     109.618750
	 B(2,4,3)         =         1.896661	     108.670674
	 B(2,4,7)         =         1.926813	     110.398244
	 B(3,4,7)         =         1.921429	     110.089800
	 B(4,7,5)         =         1.906297	     109.222754
	 B(4,7,6)         =         1.903459	     109.060163
	 B(4,7,10)        =         1.936307	     110.942236
	 B(5,7,6)         =         1.905839	     109.196536
	 B(5,7,10)        =         1.902311	     108.994371
	 B(6,7,10)        =         1.909400	     109.400582
	 B(7,10,8)        =         1.909305	     109.395122
	 B(7,10,9)        =         1.902770	     109.020713
	 B(7,10,14)       =         1.936643	     110.961480
	 B(8,10,9)        =         1.905280	     109.164481
	 B(8,10,14)       =         1.902903	     109.028333
	 B(9,10,14)       =         1.906697	     109.245692
	 B(10,14,11)      =         1.927135	     110.416689
	 B(10,14,12)      =         1.913550	     109.638348
	 B(10,14,13)      =         1.922552	     110.154092
	 B(11,14,12)      =         1.901092	     108.924543
	 B(11,14,13)      =         1.897127	     108.697377
	 B(12,14,13)      =         1.902005	     108.976868
	 D(1,4,7,5)       =        -3.137108	    -179.743050
	 D(1,4,7,6)       =        -1.055491	     -60.475168
	 D(1,4,7,10)      =         1.048773	      60.090263
	 D(2,4,7,5)       =        -1.041257	     -59.659613
	 D(2,4,7,6)       =         1.040361	      59.608269
	 D(2,4,7,10)      =        -3.138561	    -179.826300
	 D(3,4,7,5)       =         1.052769	      60.319225
	 D(3,4,7,6)       =         3.134386	     179.587107
	 D(3,4,7,10)      =        -1.044535	     -59.847462
	 D(4,7,10,8)      =        -2.787638	    -159.719902
	 D(4,7,10,9)      =        -0.705328	     -40.412337
	 D(4,7,10,14)     =         1.395347	      79.947512
	 D(5,7,10,8)      =         1.395873	      79.977653
	 D(5,7,10,9)      =        -2.805002	    -160.714782
	 D(5,7,10,14)     =        -0.704326	     -40.354933
	 D(6,7,10,8)      =        -0.686898	     -39.356352
	 D(6,7,10,9)      =         1.395412	      79.951213
	 D(6,7,10,14)     =        -2.787098	    -159.688938
	 D(7,10,14,11)    =        -3.139467	    -179.878195
	 D(7,10,14,12)    =         1.049023	      60.104594
	 D(7,10,14,13)    =        -1.043936	     -59.813150
	 D(8,10,14,11)    =         1.039723	      59.571725
	 D(8,10,14,12)    =        -1.054973	     -60.445485
	 D(8,10,14,13)    =         3.135253	     179.636770
	 D(9,10,14,11)    =        -1.041123	     -59.651953
	 D(9,10,14,12)    =        -3.135818	    -179.669164
	 D(9,10,14,13)    =         1.054407	      60.413091

	Current energy   :      -158.1582953242

	Energy change for the previous step:
		Projected    :        -0.0043683989
		Actual       :        -0.0029606299

	Performing BFGS update.
	Previous computed or guess Hessian on step 1.
	Steps to be used in Hessian update: 1
	Adding user-defined constraint: Fragment 1; Coordinate 49:
		Value =     1.395347; Fixed value    =     1.396260
		Force =     0.000479; Force constant =     0.525000
	Removing off-diagonal coupling between coordinate 49 and others.
	Taking RFO optimization step.
	Going to follow RFO solution 1.
	Using RFO vector 1.

	Determining step-restricting scale parameter for RS-RFO.
	Maximum step size allowed    0.10000

	 Iter      |step|        alpha        rfo_root  
	------------------------------------------------
	    0     0.17263       1.00000           1
	    1     0.14101       3.97914           1
	    2     0.11693      11.51215           1
	    3     0.10375      19.57194           1
	    4     0.10024      22.46475           1
	    5     0.10000      22.67938           1
	------------------------------------------------
	Norm of target step-size    0.10000
	Projected energy change by RFO approximation:        -0.0015879436

	Back-transformation to cartesian coordinates...
	Could not converge backtransformation.
	Using first guess instead.

	--- Internal Coordinate Step in ANG or DEG, aJ/ANG or AJ/DEG ---
	 ---------------------------------------------------------------------------
	   Coordinate                Previous        Force       Change         New 
	   ----------                --------       ------       ------       ------
	    1 R(1,4)          =      1.081682     0.031452     0.006019     1.087701
	    2 R(2,4)          =      1.082388     0.026665     0.004885     1.087273
	    3 R(3,4)          =      1.081306     0.031253     0.006296     1.087602
	    4 R(4,7)          =      1.533254    -0.037362    -0.010065     1.523189
	    5 R(5,7)          =      1.083113     0.035004     0.006877     1.089989
	    6 R(6,7)          =      1.082777     0.031410     0.005811     1.088588
	    7 R(7,10)         =      1.535208    -0.031015    -0.008632     1.526577
	    8 R(8,10)         =      1.082814     0.031395     0.005808     1.088623
	    9 R(9,10)         =      1.082986     0.035754     0.006993     1.089979
	   10 R(10,14)        =      1.532665    -0.035359    -0.009569     1.523096
	   11 R(11,14)        =      1.082132     0.028177     0.005135     1.087266
	   12 R(12,14)        =      1.081842     0.030892     0.005910     1.087752
	   13 R(13,14)        =      1.081517     0.030132     0.006083     1.087600
	   14 B(1,4,2)        =    108.997472    -0.000149    -0.702885   108.294587
	   15 B(1,4,3)        =    109.035484    -0.000151    -0.775870   108.259614
	   16 B(1,4,7)        =    109.618750     0.000098     0.495698   110.114448
	   17 B(2,4,3)        =    108.670674    -0.000177    -0.769745   107.900929
	   18 B(2,4,7)        =    110.398244     0.000184     0.794682   111.192926
	   19 B(3,4,7)        =    110.089800     0.000186     0.884956   110.974757
	   20 B(4,7,5)        =    109.222754    -0.000029     0.174356   109.397110
	   21 B(4,7,6)        =    109.060163    -0.000072    -0.162924   108.897239
	   22 B(4,7,10)       =    110.942236     0.000274     1.165962   112.108198
	   23 B(5,7,6)        =    109.196536    -0.000078    -1.170173   108.026364
	   24 B(5,7,10)       =    108.994371    -0.000077    -0.111964   108.882407
	   25 B(6,7,10)       =    109.400582    -0.000023     0.042607   109.443189
	   26 B(7,10,8)       =    109.395122    -0.000023     0.046271   109.441392
	   27 B(7,10,9)       =    109.020713    -0.000078    -0.125499   108.895214
	   28 B(7,10,14)      =    110.961480     0.000273     1.152837   112.114316
	   29 B(8,10,9)       =    109.164481    -0.000077    -1.155739   108.008741
	   30 B(8,10,14)      =    109.028333    -0.000070    -0.145868   108.882465
	   31 B(9,10,14)      =    109.245692    -0.000030     0.165755   109.411447
	   32 B(10,14,11)     =    110.416689     0.000183     0.780135   111.196824
	   33 B(10,14,12)     =    109.638348     0.000092     0.475288   110.113636
	   34 B(10,14,13)     =    110.154092     0.000179     0.846929   111.001020
	   35 B(11,14,12)     =    108.924543    -0.000142    -0.659274   108.265269
	   36 B(11,14,13)     =    108.697377    -0.000177    -0.780165   107.917213
	   37 B(12,14,13)     =    108.976868    -0.000144    -0.735201   108.241666
	   38 D(1,4,7,5)      =   -179.743050     0.000018     0.840649  -178.902401
	   39 D(1,4,7,6)      =    -60.475168    -0.000018    -0.568172   -61.043340
	   40 D(1,4,7,10)     =     60.090263     0.000004     0.119346    60.209609
	   41 D(2,4,7,5)      =    -59.659613     0.000016     0.793043   -58.866570
	   42 D(2,4,7,6)      =     59.608269    -0.000019    -0.615778    58.992491
	   43 D(2,4,7,10)     =   -179.826300     0.000003     0.071740  -179.754560
[...]
  CGR           3          0          1   3.313E-03
  CGR           4          0          1   8.243E-04
  CGR           5          0          1   1.781E-04
  CGR           6          0          1   3.296E-05
  CGR           7          0          1   5.727E-06
  CGR           8          0          1   1.115E-06
  CGR           9          1          0   1.361E-07

    CGRSolver converged.

  ==> DFCorrGrad: Density-Fitted Correlated Gradients <==

    OpenMP threads:              1
    Integrals threads:           1
    Memory (MB):               715
    Schwarz Cutoff:          0E+00
    Fitting Condition:       1E-12

   => Auxiliary Basis Set <=

  Basis Set: (AUG-CC-PVTZ AUX)
    Blend: AUG-CC-PVTZ-JKFIT
    Number of shells: 260
    Number of basis function: 876
    Number of Cartesian functions: 1074
    Spherical Harmonics?: true
    Max angular momentum: 4

	-----------------------------------------------------------
	 ==================> DF-MP2 Energies <==================== 
	-----------------------------------------------------------
	 Reference Energy          =    -157.3539947785193647 [Eh]
	 Singles Energy            =      -0.0000000000000000 [Eh]
	 Same-Spin Energy          =      -0.1657551599385402 [Eh]
	 Opposite-Spin Energy      =      -0.6397135376049001 [Eh]
	 Correlation Energy        =      -0.8054686975434403 [Eh]
	 Total Energy              =    -158.1594634760627969 [Eh]
	-----------------------------------------------------------
	 ================> DF-SCS-MP2 Energies <================== 
	-----------------------------------------------------------
	 SCS Same-Spin Scale       =       0.3333333333333333 [-]
	 SCS Opposite-Spin Scale   =       1.2000000000000000 [-]
	 SCS Same-Spin Energy      =      -0.0552517199795134 [Eh]
	 SCS Opposite-Spin Energy  =      -0.7676562451258802 [Eh]
	 SCS Correlation Energy    =      -0.8229079651053935 [Eh]
	 SCS Total Energy          =    -158.1769027436247654 [Eh]
	-----------------------------------------------------------


  -Total Gradient:
     Atom            X                  Y                   Z
    ------   -----------------  -----------------  -----------------
       1        0.000000540988     0.000005781463    -0.000003713473
       2       -0.000002430259     0.000006209101    -0.000003958916
       3       -0.000006567678     0.000000993638     0.000008190588
       4       -0.001280943616    -0.000549636241    -0.000707587461
       5        0.000005555015     0.000005207082     0.000001872431
       6        0.000012030353     0.000011466269    -0.000010561063
       7        0.001575994134     0.000716172852     0.001548810180
       8        0.000019227102     0.000001554934    -0.000003813104
       9        0.000004260924    -0.000001052409    -0.000006131863
      10        0.000085172033    -0.000010577825    -0.002321398911
      11        0.000005030757    -0.000005041105     0.000002719265
      12        0.000005797940    -0.000003122586     0.000000541672
      13       -0.000007974187    -0.000007285918    -0.000001257865
      14       -0.000415693506    -0.000170669257     0.001496288517


*** tstop() called on gpu-1-9.local at Wed Jun 14 15:14:43 2017
Module time:
	user time   =     462.27 seconds =       7.70 minutes
	system time =       3.47 seconds =       0.06 minutes
	total time  =        466 seconds =       7.77 minutes
Total time:
	user time   =    2782.69 seconds =      46.38 minutes
	system time =      20.82 seconds =       0.35 minutes
	total time  =       2807 seconds =      46.78 minutes

			-----------------------------------------
			 OPTKING 2.0: for geometry optimizations 
			  - R.A. King,  Bethel University        
			-----------------------------------------

	Previous internal coordinate definitions found.
	---Fragment 1 Geometry and Gradient---
	 H          -1.5309411382        1.4871890496       -3.6257341018
	 H          -1.5517755133        4.3300858668       -1.8992111567
	 H           1.2567353540        2.5856155465       -2.1876232321
	 C          -0.7802806326        2.4260240950       -1.9570008867
	 H          -0.8133609701        1.9630650025        2.0824989060
	 H          -3.5044392246        0.8161636003        0.5478688454
	 C          -1.4538263570        0.9455233142        0.4074892211
	 H          -1.3822028939       -2.8918880486        1.7244948209
	 H          -0.5440014551       -2.5396419118       -1.4513051074
	 C          -0.3242295145       -1.7007971881        0.4193313972
	 H           3.2281785643       -3.6179908514        1.1196555506
	 H           2.6576025805       -1.0086160381        3.1018192651
	 H           3.5723397052       -0.5343414935       -0.0579553348
	 C           2.4417534033       -1.7202714444        1.1843921464
	             0.0000005410        0.0000057815       -0.0000037135
	            -0.0000024303        0.0000062091       -0.0000039589
	            -0.0000065677        0.0000009936        0.0000081906
	            -0.0012809436       -0.0005496362       -0.0007075875
	             0.0000055550        0.0000052071        0.0000018724
	             0.0000120304        0.0000114663       -0.0000105611
	             0.0015759941        0.0007161729        0.0015488102
	             0.0000192271        0.0000015549       -0.0000038131
	             0.0000042609       -0.0000010524       -0.0000061319
	             0.0000851720       -0.0000105778       -0.0023213989
	             0.0000050308       -0.0000050411        0.0000027193
	             0.0000057979       -0.0000031226        0.0000005417
	            -0.0000079742       -0.0000072859       -0.0000012579
	            -0.0004156935       -0.0001706693        0.0014962885

	---Fragment 1 Intrafragment Coordinates---
	 - Coordinate -           - BOHR/RAD -       - ANG/DEG -
	 R(1,4)           =         2.056593	       1.088302
	 R(2,4)           =         2.055236	       1.087584
	 R(3,4)           =         2.056232	       1.088111
	 R(4,7)           =         2.869906	       1.518689
	 R(5,7)           =         2.061855	       1.091086
	 R(6,7)           =         2.059479	       1.089829
	 R(7,10)          =         2.877350	       1.522628
	 R(8,10)          =         2.059480	       1.089830
	 R(9,10)          =         2.061854	       1.091086
	 R(10,14)         =         2.869906	       1.518689
	 R(11,14)         =         2.055236	       1.087584
	 R(12,14)         =         2.056592	       1.088302
	 R(13,14)         =         2.056230	       1.088110
	 B(1,4,2)         =         1.884646	     107.982284
	 B(1,4,3)         =         1.881802	     107.819302
	 B(1,4,7)         =         1.925543	     110.325464
	 B(2,4,3)         =         1.878763	     107.645167
	 B(2,4,7)         =         1.946213	     111.509793
	 B(3,4,7)         =         1.944369	     111.404117
	 B(4,7,5)         =         1.919654	     109.988091
	 B(4,7,6)         =         1.898895	     108.798669
	 B(4,7,10)        =         1.966768	     112.687515
	 B(5,7,6)         =         1.859712	     106.553634
	 B(5,7,10)        =         1.905610	     109.183418
	 B(6,7,10)        =         1.910113	     109.441440
	 B(7,10,8)        =         1.910114	     109.441479
	 B(7,10,9)        =         1.905612	     109.183507
	 B(7,10,14)       =         1.966768	     112.687483
	 B(8,10,9)        =         1.859711	     106.553564
	 B(8,10,14)       =         1.898892	     108.798525
	 B(9,10,14)       =         1.919656	     109.988207
	 B(10,14,11)      =         1.946210	     111.509621
	 B(10,14,12)      =         1.925538	     110.325174
	 B(10,14,13)      =         1.944371	     111.404275
	 B(11,14,12)      =         1.884645	     107.982233
	 B(11,14,13)      =         1.878766	     107.645362
	 B(12,14,13)      =         1.881805	     107.819478
	 D(1,4,7,5)       =        -3.071786	    -176.000345
	 D(1,4,7,6)       =        -1.040848	     -59.636201
	 D(1,4,7,10)      =         1.080776	      61.923878
	 D(2,4,7,5)       =        -0.977562	     -56.010186
	 D(2,4,7,6)       =         1.053375	      60.353958
	 D(2,4,7,10)      =        -3.108186	    -178.085963
	 D(3,4,7,5)       =         1.121956	      64.283363
	 D(3,4,7,6)       =        -3.130292	    -179.352492
	 D(3,4,7,10)      =        -1.008668	     -57.792414
	 D(4,7,10,8)      =        -2.776468	    -159.079919
	 D(4,7,10,9)      =        -0.747058	     -42.803261
	 D(4,7,10,14)     =         1.391474	      79.725563
	 D(5,7,10,8)      =         1.368189	      78.391447
	 D(5,7,10,9)      =        -2.885586	    -165.331895
	 D(5,7,10,14)     =        -0.747055	     -42.803071
	 D(6,7,10,8)      =        -0.661222	     -37.885223
	 D(6,7,10,9)      =         1.368189	      78.391434
	 D(6,7,10,14)     =        -2.776465	    -159.079742
	 D(7,10,14,11)    =        -3.108186	    -178.085946
	 D(7,10,14,12)    =         1.080782	      61.924266
	 D(7,10,14,13)    =        -1.008663	     -57.792157
	 D(8,10,14,11)    =         1.053377	      60.354047
	 D(8,10,14,12)    =        -1.040840	     -59.635741
	 D(8,10,14,13)    =        -3.130286	    -179.352164
	 D(9,10,14,11)    =        -0.977559	     -56.009994
	 D(9,10,14,12)    =        -3.071776	    -175.999782
	 D(9,10,14,13)    =         1.121964	      64.283795

	Current energy   :      -158.1594634761

	Energy change for the previous step:
		Projected    :        -0.0000021702
		Actual       :         0.0000007466

	Performing BFGS update.
	Previous computed or guess Hessian on step 1.
	Steps to be used in Hessian update: 5 4
	Adding user-defined constraint: Fragment 1; Coordinate 49:
		Value =     1.391474; Fixed value    =     1.396260
		Force =     0.002992; Force constant =     0.625000
	Removing off-diagonal coupling between coordinate 49 and others.
	Taking RFO optimization step.
	Going to follow RFO solution 1.
	Using RFO vector 1.
	Norm of target step-size    0.00143
	Projected energy change by RFO approximation:        -0.0000000387

	Back-transformation to cartesian coordinates...
	Successfully converged to displaced geometry.

	--- Internal Coordinate Step in ANG or DEG, aJ/ANG or AJ/DEG ---
	 ---------------------------------------------------------------------------
	   Coordinate                Previous        Force       Change         New 
	   ----------                --------       ------       ------       ------
	    1 R(1,4)          =      1.088302    -0.000001     0.000040     1.088342
	    2 R(2,4)          =      1.087584    -0.000054     0.000018     1.087602
	    3 R(3,4)          =      1.088111     0.000061     0.000043     1.088154
	    4 R(4,7)          =      1.518689    -0.000025    -0.000064     1.518625
	    5 R(5,7)          =      1.091086    -0.000048     0.000012     1.091099
	    6 R(6,7)          =      1.089829     0.000111     0.000014     1.089843
	    7 R(7,10)         =      1.522628    -0.000474    -0.000201     1.522427
	    8 R(8,10)         =      1.089830     0.000109     0.000014     1.089843
	    9 R(9,10)         =      1.091086    -0.000046     0.000014     1.091100
	   10 R(10,14)        =      1.518689    -0.000023    -0.000060     1.518629
	   11 R(11,14)        =      1.087584    -0.000053     0.000020     1.087604
	   12 R(12,14)        =      1.088302    -0.000000     0.000039     1.088341
	   13 R(13,14)        =      1.088110     0.000064     0.000041     1.088151
	   14 B(1,4,2)        =    107.982284     0.000001    -0.001337   107.980947
	   15 B(1,4,3)        =    107.819302    -0.000000    -0.000295   107.819008
	   16 B(1,4,7)        =    110.325464    -0.000001     0.002114   110.327578
	   17 B(2,4,3)        =    107.645167    -0.000000    -0.001078   107.644089
	   18 B(2,4,7)        =    111.509793    -0.000000    -0.008825   111.500968
	   19 B(3,4,7)        =    111.404117     0.000001     0.009307   111.413424
	   20 B(4,7,5)        =    109.988091     0.000004     0.000104   109.988195
	   21 B(4,7,6)        =    108.798669    -0.000002     0.016892   108.815562
	   22 B(4,7,10)       =    112.687515    -0.000002    -0.003808   112.683707
	   23 B(5,7,6)        =    106.553634    -0.000000     0.000365   106.553999
	   24 B(5,7,10)       =    109.183418     0.000000    -0.005441   109.177978
	   25 B(6,7,10)       =    109.441440    -0.000000    -0.007873   109.433567
	   26 B(7,10,8)       =    109.441479    -0.000000    -0.008063   109.433416
	   27 B(7,10,9)       =    109.183507     0.000000    -0.005452   109.178055
	   28 B(7,10,14)      =    112.687483    -0.000002    -0.003686   112.683797
	   29 B(8,10,9)       =    106.553564    -0.000000     0.000417   106.553981
	   30 B(8,10,14)      =    108.798525    -0.000002     0.016795   108.815320
	   31 B(9,10,14)      =    109.988207     0.000004     0.000223   109.988430
	   32 B(10,14,11)     =    111.509621    -0.000000    -0.008717   111.500905
	   33 B(10,14,12)     =    110.325174    -0.000001     0.002088   110.327262
	   34 B(10,14,13)     =    111.404275     0.000001     0.009049   111.413325
	   35 B(11,14,12)     =    107.982233     0.000000    -0.001240   107.980992
	   36 B(11,14,13)     =    107.645362    -0.000000    -0.001136   107.644226
	   37 B(12,14,13)     =    107.819478    -0.000000    -0.000147   107.819331
	   38 D(1,4,7,5)      =   -176.000345     0.000000     0.006166  -175.994179
	   39 D(1,4,7,6)      =    -59.636201     0.000000     0.016372   -59.619828
	   40 D(1,4,7,10)     =     61.923878    -0.000000     0.015717    61.939595
	   41 D(2,4,7,5)      =    -56.010186     0.000000     0.000116   -56.010071
	   42 D(2,4,7,6)      =     60.353958     0.000000     0.010322    60.364280
	   43 D(2,4,7,10)     =   -178.085963    -0.000000     0.009667  -178.076297
	   44 D(3,4,7,5)      =     64.283363     0.000000    -0.000917    64.282445
	   45 D(3,4,7,6)      =   -179.352492     0.000000     0.009289  -179.343204
	   46 D(3,4,7,10)     =    -57.792414    -0.000000     0.008634   -57.783781
	   47 D(4,7,10,8)     =   -159.079919     0.000001     0.017267  -159.062652
	   48 D(4,7,10,9)     =    -42.803261     0.000001     0.010153   -42.793108
	   49 D(4,7,10,14)    =     79.725563     0.000002     0.004022    79.729585
	   50 D(5,7,10,8)     =     78.391447     0.000000     0.023625    78.415072
	   51 D(5,7,10,9)     =   -165.331895    -0.000000     0.016511  -165.315385
	   52 D(5,7,10,14)    =    -42.803071     0.000001     0.010380   -42.792692
	   53 D(6,7,10,8)     =    -37.885223     0.000000     0.030688   -37.854535
	   54 D(6,7,10,9)     =     78.391434     0.000000     0.023574    78.415009
	   55 D(6,7,10,14)    =   -159.079742     0.000001     0.017443  -159.062298
	   56 D(7,10,14,11)   =   -178.085946    -0.000000     0.009167  -178.076779
	   57 D(7,10,14,12)   =     61.924266    -0.000000     0.015042    61.939308
	   58 D(7,10,14,13)   =    -57.792157    -0.000000     0.007957   -57.784200
	   59 D(8,10,14,11)   =     60.354047     0.000000     0.010052    60.364099
	   60 D(8,10,14,12)   =    -59.635741     0.000000     0.015927   -59.619814
	   61 D(8,10,14,13)   =   -179.352164     0.000000     0.008842  -179.343322
	   62 D(9,10,14,11)   =    -56.009994     0.000000    -0.000228   -56.010223
	   63 D(9,10,14,12)   =   -175.999782     0.000000     0.005647  -175.994136
	   64 D(9,10,14,13)   =     64.283795     0.000000    -0.001438    64.282356
	 ---------------------------------------------------------------------------
	Successfully symmetrized geometry.
	 Forces used to impose fixed constraints are not included.
	  Forces zeroed: 49 

  ==> Convergence Check <==

  Measures of convergence in internal coordinates in au.
  Criteria marked as inactive (o), active & met (*), and active & unmet ( ).
  ---------------------------------------------------------------------------------------------
   Step     Total Energy     Delta E     MAX Force     RMS Force      MAX Disp      RMS Disp   
  ---------------------------------------------------------------------------------------------
    Convergence Criteria    1.00e-06 *    3.00e-04 *             o    1.20e-03 *             o
  ---------------------------------------------------------------------------------------------
      6    -158.15946348    7.47e-07 *    5.76e-05 *    1.93e-05 o    5.36e-04 *    1.78e-04 o  ~
  ---------------------------------------------------------------------------------------------


  **** Optimization is complete! (in 6 steps) ****

  ==> Optimization Summary <==

  Measures of convergence in internal coordinates in au.
  --------------------------------------------------------------------------------------------------------------- ~
   Step         Total Energy             Delta E       MAX Force       RMS Force        MAX Disp        RMS Disp  ~
  --------------------------------------------------------------------------------------------------------------- ~
      1    -158.155334694318   -158.155334694318      0.01307203      0.00550446      0.02543019      0.01250367  ~
      2    -158.158295324215     -0.002960629897      0.00453498      0.00219357      0.03245726      0.01252125  ~
      3    -158.159260648887     -0.000965324672      0.00134757      0.00056180      0.03751505      0.01252386  ~
      4    -158.159446975979     -0.000186327092      0.00066158      0.00014895      0.02227284      0.01042857  ~
      5    -158.159464222627     -0.000017246647      0.00012127      0.00003478      0.00160770      0.00066301  ~
      6    -158.159463476063      0.000000746564      0.00009498      0.00002270      0.00053561      0.00017846  ~
  --------------------------------------------------------------------------------------------------------------- ~

	Writing optimization data to binary file.
	Final energy is   -158.1594634760628
	Final (previous) structure:
	Cartesian Geometry (in Angstrom)
	    H    -0.8101391580   0.7869865499  -1.9186558511
	    H    -0.8211642345   2.2913827519  -1.0050192584
	    H     0.6650357066   1.3682488174  -1.1576403554
	    C    -0.4129067271   1.2837966586  -1.0356002664
	    H    -0.4304120877   1.0388092583   1.1020109580
	    H    -1.8544693666   0.4318951758   0.2899197063
	    C    -0.7693317734   0.5003493880   0.2156340086
	    H    -0.7314302691  -1.5303212451   0.9125633555
	    H    -0.2878731715  -1.3439206177  -0.7679975856
	    C    -0.1715748694  -0.9000231084   0.2219006183
	    H     1.7082785215  -1.9145582994   0.5924961988
	    H     1.4063427151  -0.5337366196   1.6414120602
	    H     1.8904007533  -0.2827613400  -0.0306686423
	    C     1.2921202500  -0.9103284409   0.6267533299
	Saving final (previous) structure.
			--------------------------
			 OPTKING Finished Execution 
			--------------------------

    Final optimized geometry and variables:
    Molecular point group: c1
    Full point group: C1

    Geometry (in Angstrom), charge = 0, multiplicity = 1:

    H           -0.810139158020     0.786986549891    -1.918655851057
    H           -0.821164234463     2.291382751946    -1.005019258408
    H            0.665035706551     1.368248817364    -1.157640355412
    C           -0.412906727068     1.283796658571    -1.035600266436
    H           -0.430412087742     1.038809258301     1.102010957965
    H           -1.854469366567     0.431895175771     0.289919706266
    C           -0.769331773356     0.500349388048     0.215634008574
    H           -0.731430269099    -1.530321245118     0.912563355539
    H           -0.287873171459    -1.343920617731    -0.767997585552
    C           -0.171574869436    -0.900023108388     0.221900618257
    H            1.708278521472    -1.914558299443     0.592496198833
    H            1.406342715096    -0.533736619589     1.641412060233
    H            1.890400753323    -0.282761339965    -0.030668642289
    C            1.292120250003    -0.910328440949     0.626753329918

	Cleaning optimization helper files.

*** Psi4 exiting successfully. Buy a developer a beer!
