
    -----------------------------------------------------------------------
          Psi4: An Open-Source Ab Initio Electronic Structure Package
                               Psi4 1.1 release

                         Git: Rev {HEAD} add49b9 


    R. M. Parrish, L. A. Burns, D. G. A. Smith, A. C. Simmonett,
    A. E. DePrince III, E. G. Hohenstein, U. Bozkaya, A. Yu. Sokolov,
    R. Di Remigio, R. M. Richard, J. F. Gonthier, A. M. James,
    H. R. McAlexander, A. Kumar, M. Saitow, X. Wang, B. P. Pritchard,
    P. Verma, H. F. Schaefer III, K. Patkowski, R. A. King, E. F. Valeev,
    F. A. Evangelista, J. M. Turney, T. D. Crawford, and C. D. Sherrill,
    J. Chem. Theory Comput. in press (2017).
    (doi: 10.1021/acs.jctc.7b00174)

    -----------------------------------------------------------------------


    Psi4 started on: Wednesday, 14 June 2017 02:19PM

    Process ID:  11682
    PSIDATADIR: /cbio/jclab/home/chayas/anaconda/envs/py35/share/psi4
    Memory:     500.0 MiB
    Threads:    1
    
  ==> Input File <==

--------------------------------------------------------------------------

memory 5000 mb

molecule butane {
  symmetry C1
  0 1 
  H      1.933   0.505   -9.488
  H      1.538   1.414   -8.048
  H      1.920   2.251   -9.533
  C      2.142   1.395   -8.932
  H      4.169   2.051   -9.210
  H      3.731   1.788   -7.539
  C      3.631   1.416   -8.537
  H      3.665   -0.647   -7.940
  H      4.104   -0.384   -9.610
  C      4.203   -0.012   -8.612
  H      6.088   -0.983   -8.270
  H      5.791   0.381   -7.220
  H      6.230   0.644   -8.890
  C      5.691   0.009   -8.218
  units Angstrom
}

dih_string = "10 7 4 3 220"
set optking fixed_dihedral = $dih_string

optimize('MP2/aug-cc-pvtz')
--------------------------------------------------------------------------

  Memory set to   4.657 GiB by Python driver.
gradient() will perform analytic gradient computation.

*** tstart() called on cpu-6-1.local
*** at Wed Jun 14 14:19:21 2017

    SCF Algorithm Type (re)set to DF.

*** tstart() called on cpu-6-1.local
*** at Wed Jun 14 14:19:21 2017

   => Loading Basis Set <=

    Name: AUG-CC-PVTZ
    Role: ORBITAL
    Keyword: BASIS
    atoms 1-3, 5-6, 8-9, 11-13 entry H          line    34 file /cbio/jclab/home/chayas/anaconda/envs/py35/share/psi4/basis/aug-cc-pvtz.gbs 
    atoms 4, 7, 10, 14         entry C          line   221 file /cbio/jclab/home/chayas/anaconda/envs/py35/share/psi4/basis/aug-cc-pvtz.gbs 


         ---------------------------------------------------------
                                   SCF
            by Justin Turney, Rob Parrish, and Andy Simmonett
                              RHF Reference
                        1 Threads,   4768 MiB Core
         ---------------------------------------------------------

  ==> Geometry <==

    Molecular point group: c1
    Full point group: C1

    Geometry (in Angstrom), charge = 0, multiplicity = 1:

       Center              X                  Y                   Z               Mass       
    ------------   -----------------  -----------------  -----------------  -----------------
           H         -1.983776029323    -0.197000000000    -0.913241323559     1.007825032070
           H         -2.378776029323     0.712000000000     0.526758676441     1.007825032070
           H         -1.996776029323     1.549000000000    -0.958241323559     1.007825032070
           C         -1.774776029323     0.693000000000    -0.357241323559    12.000000000000
           H          0.252223970677     1.349000000000    -0.635241323559     1.007825032070
           H         -0.185776029323     1.086000000000     1.035758676441     1.007825032070
           C         -0.285776029323     0.714000000000     0.037758676441    12.000000000000
           H         -0.251776029323    -1.349000000000     0.634758676441     1.007825032070
           H          0.187223970677    -1.086000000000    -1.035241323559     1.007825032070
           C          0.286223970677    -0.714000000000    -0.037241323559    12.000000000000
           H          2.171223970677    -1.685000000000     0.304758676441     1.007825032070
           H          1.874223970677    -0.321000000000     1.354758676441     1.007825032070
           H          2.313223970677    -0.058000000000    -0.315241323559     1.007825032070
           C          1.774223970677    -0.693000000000     0.356758676441    12.000000000000

  Running in c1 symmetry.

  Rotational constants: A =      0.76944  B =      0.12464  C =      0.11638 [cm^-1]
  Rotational constants: A =  23067.13869  B =   3736.70613  C =   3488.93423 [MHz]
  Nuclear repulsion =  131.841593358848996

  Charge       = 0
  Multiplicity = 1
  Electrons    = 34
  Nalpha       = 17
  Nbeta        = 17

  ==> Algorithm <==

  SCF Algorithm Type is DF.
  DIIS enabled.
  MOM disabled.
  Fractional occupation disabled.
  Guess Type is SAD.
  Energy threshold   = 1.00e-10
  Density threshold  = 1.00e-10
  Integral threshold = 0.00e+00

  ==> Primary Basis <==

  Basis Set: AUG-CC-PVTZ
    Blend: AUG-CC-PVTZ
    Number of shells: 146
    Number of basis function: 414
    Number of Cartesian functions: 470
    Spherical Harmonics?: true
    Max angular momentum: 3

   => Loading Basis Set <=

    Name: (AUG-CC-PVTZ AUX)
    Role: JKFIT
    Keyword: DF_BASIS_SCF
    atoms 1-3, 5-6, 8-9, 11-13 entry H          line    69 file /cbio/jclab/home/chayas/anaconda/envs/py35/share/psi4/basis/aug-cc-pvtz-jkfit.gbs 
    atoms 4, 7, 10, 14         entry C          line   161 file /cbio/jclab/home/chayas/anaconda/envs/py35/share/psi4/basis/aug-cc-pvtz-jkfit.gbs 

  ==> Pre-Iterations <==

   -------------------------------------------------------
    Irrep   Nso     Nmo     Nalpha   Nbeta   Ndocc  Nsocc
   -------------------------------------------------------
     A        414     414       0       0       0       0
   -------------------------------------------------------
    Total     414     414      17      17      17       0
   -------------------------------------------------------

  ==> Integral Setup <==

  ==> DFJK: Density-Fitted J/K Matrices <==

    J tasked:                  Yes
    K tasked:                  Yes
    wK tasked:                  No
    OpenMP threads:              1
    Integrals threads:           1
    Memory (MB):              3576
    Algorithm:                Core
    Integral Cache:           NONE
    Schwarz Cutoff:          1E-12
    Fitting Condition:       1E-12

   => Auxiliary Basis Set <=

  Basis Set: (AUG-CC-PVTZ AUX)
    Blend: AUG-CC-PVTZ-JKFIT
    Number of shells: 260
    Number of basis function: 876
    Number of Cartesian functions: 1074
    Spherical Harmonics?: true
    Max angular momentum: 4

  Minimum eigenvalue in the overlap matrix is 8.5166018403E-06.
  Using Symmetric Orthogonalization.

  SCF Guess: Superposition of Atomic Densities via on-the-fly atomic UHF.

  ==> Iterations <==

                           Total Energy        Delta E     RMS |[F,P]|

   @DF-RHF iter   0:  -158.83563043487715   -1.58836e+02   9.27950e-03 
   @DF-RHF iter   1:  -157.20590295689669    1.62973e+00   1.07482e-03 
   @DF-RHF iter   2:  -157.32859223007938   -1.22689e-01   4.04024e-04 DIIS
   @DF-RHF iter   3:  -157.34563432580060   -1.70421e-02   1.40309e-04 DIIS
   @DF-RHF iter   4:  -157.34852001518249   -2.88569e-03   2.30562e-05 DIIS
   @DF-RHF iter   5:  -157.34861728149650   -9.72663e-05   6.32039e-06 DIIS
   @DF-RHF iter   6:  -157.34862375844855   -6.47695e-06   1.64540e-06 DIIS
   @DF-RHF iter   7:  -157.34862426570305   -5.07254e-07   3.23998e-07 DIIS
   @DF-RHF iter   8:  -157.34862428992119   -2.42181e-08   7.21526e-08 DIIS
   @DF-RHF iter   9:  -157.34862429108327   -1.16208e-09   1.79746e-08 DIIS
   @DF-RHF iter  10:  -157.34862429115515   -7.18785e-11   3.77300e-09 DIIS
   @DF-RHF iter  11:  -157.34862429115776   -2.61480e-12   9.16764e-10 DIIS
   @DF-RHF iter  12:  -157.34862429115987   -2.10321e-12   2.33457e-10 DIIS
   @DF-RHF iter  13:  -157.34862429115725    2.61480e-12   6.37110e-11 DIIS

  ==> Post-Iterations <==

    Orbital Energies (a.u.)
    -----------------------

    Doubly Occupied:                                                      

       1A    -11.207238     2A    -11.205717     3A    -11.198295  
       4A    -11.197398     5A     -1.070716     6A     -0.980945  
       7A     -0.861236     8A     -0.795444     9A     -0.646554  
      10A     -0.587455    11A     -0.576926    12A     -0.571646  
      13A     -0.512242    14A     -0.504359    15A     -0.472864  
      16A     -0.468958    17A     -0.440753  

    Virtual:                                                              

      18A      0.032331    19A      0.037670    20A      0.039413  
      21A      0.040379    22A      0.058164    23A      0.058858  
      24A      0.060260    25A      0.060934    26A      0.077979  
      27A      0.083076    28A      0.102286    29A      0.112753  
      30A      0.122651    31A      0.130484    32A      0.138496  
      33A      0.142135    34A      0.142303    35A      0.145322  
      36A      0.148342    37A      0.160822    38A      0.165958  
      39A      0.166284    40A      0.172394    41A      0.200096  
      42A      0.202050    43A      0.215312    44A      0.226680  
      45A      0.242161    46A      0.250414    47A      0.254805  
      48A      0.267311    49A      0.279789    50A      0.283328  
      51A      0.289018    52A      0.311430    53A      0.318841  
      54A      0.331532    55A      0.339199    56A      0.346564  
      57A      0.357742    58A      0.358509    59A      0.359138  
      60A      0.367654    61A      0.369076    62A      0.371501  
      63A      0.382496    64A      0.387487    65A      0.390289  
      66A      0.391397    67A      0.397404    68A      0.400363  
      69A      0.405378    70A      0.410228    71A      0.416617  
      72A      0.430909    73A      0.443644    74A      0.446619  
      75A      0.448862    76A      0.462599    77A      0.462775  
      78A      0.465178    79A      0.470967    80A      0.486425  
      81A      0.490299    82A      0.500402    83A      0.503160  
      84A      0.508968    85A      0.517251    86A      0.518580  
      87A      0.523980    88A      0.529921    89A      0.540940  
      90A      0.543693    91A      0.547950    92A      0.556169  
      93A      0.567463    94A      0.574750    95A      0.580344  
      96A      0.588898    97A      0.599554    98A      0.612817  
      99A      0.614228   100A      0.634447   101A      0.641704  
     102A      0.655829   103A      0.678357   104A      0.680544  
     105A      0.696998   106A      0.722330   107A      0.757579  
     108A      0.773646   109A      0.798294   110A      0.811750  
     111A      0.821651   112A      0.828398   113A      0.835657  
     114A      0.842290   115A      0.847605   116A      0.861545  
     117A      0.865325   118A      0.879696   119A      0.880597  
     120A      0.888986   121A      0.895174   122A      0.902009  
     123A      0.916797   124A      0.921604   125A      0.923929  
     126A      0.928874   127A      0.933453   128A      0.937773  
     129A      0.947524   130A      0.957940   131A      0.964356  
     132A      0.976164   133A      0.981900   134A      0.991805  
     135A      0.997286   136A      1.016314   137A      1.029799  
     138A      1.033465   139A      1.045876   140A      1.071809  
     141A      1.078587   142A      1.080518   143A      1.089739  
     144A      1.095923   145A      1.104036   146A      1.111441  
     147A      1.120623   148A      1.137286   149A      1.152541  
     150A      1.156094   151A      1.162083   152A      1.172730  
     153A      1.180714   154A      1.198060   155A      1.213350  
     156A      1.219721   157A      1.228979   158A      1.242757  
     159A      1.245066   160A      1.248944   161A      1.260918  
     162A      1.269990   163A      1.275040   164A      1.288211  
     165A      1.296227   166A      1.309698   167A      1.313867  
     168A      1.323601   169A      1.339637   170A      1.357279  
     171A      1.370190   172A      1.392148   173A      1.414357  
     174A      1.418905   175A      1.433690   176A      1.442326  
     177A      1.458202   178A      1.479793   179A      1.491963  
     180A      1.504519   181A      1.522607   182A      1.527742  
     183A      1.542776   184A      1.556434   185A      1.570040  
     186A      1.585094   187A      1.603997   188A      1.608281  
     189A      1.630740   190A      1.643879   191A      1.650818  
     192A      1.667989   193A      1.683447   194A      1.689619  
     195A      1.700208   196A      1.702311   197A      1.712997  
     198A      1.717305   199A      1.729110   200A      1.735481  
     201A      1.739993   202A      1.756383   203A      1.762029  
     204A      1.767710   205A      1.776706   206A      1.780642  
     207A      1.787900   208A      1.810861   209A      1.822381  
     210A      1.849459   211A      1.861036   212A      1.884046  
     213A      1.898765   214A      1.912063   215A      1.924603  
     216A      1.941111   217A      1.967844   218A      1.969814  
     219A      1.992696   220A      2.001988   221A      2.007467  
     222A      2.025103   223A      2.030944   224A      2.038310  
     225A      2.056839   226A      2.060913   227A      2.081210  
     228A      2.089738   229A      2.102173   230A      2.161964  
     231A      2.174976   232A      2.187295   233A      2.196860  
     234A      2.211893   235A      2.238303   236A      2.261375  
     237A      2.270198   238A      2.286080   239A      2.303659  
     240A      2.310473   241A      2.328908   242A      2.338582  
     243A      2.348922   244A      2.360237   245A      2.372689  
     246A      2.386164   247A      2.415125   248A      2.445704  
     249A      2.461495   250A      2.472991   251A      2.505509  
     252A      2.542008   253A      2.593791   254A      2.612065  
     255A      2.621121   256A      2.670862   257A      2.784150  
     258A      2.882036   259A      2.960972   260A      3.026651  
     261A      3.204435   262A      3.249840   263A      3.297097  
     264A      3.360677   265A      3.395800   266A      3.425321  
     267A      3.439903   268A      3.461272   269A      3.474012  
     270A      3.487106   271A      3.523975   272A      3.560306  
     273A      3.569253   274A      3.580944   275A      3.594020  
     276A      3.603348   277A      3.623384   278A      3.669304  
     279A      3.682224   280A      3.691099   281A      3.700039  
     282A      3.714112   283A      3.727689   284A      3.743332  
     285A      3.751514   286A      3.779462   287A      3.788139  
     288A      3.796531   289A      3.828731   290A      3.838255  
     291A      3.847733   292A      3.869490   293A      3.881715  
     294A      3.890589   295A      3.914686   296A      3.920453  
     297A      3.961917   298A      3.976240   299A      3.984444  
     300A      3.987609   301A      4.010866   302A      4.014236  
     303A      4.030227   304A      4.037673   305A      4.052245  
     306A      4.065412   307A      4.083606   308A      4.094223  
     309A      4.152589   310A      4.174272   311A      4.187514  
     312A      4.197153   313A      4.237572   314A      4.245052  
     315A      4.252268   316A      4.272796   317A      4.286162  
     318A      4.299978   319A      4.320839   320A      4.331612  
     321A      4.347912   322A      4.377109   323A      4.383591  
     324A      4.421966   325A      4.454341   326A      4.471788  
     327A      4.523641   328A      4.539933   329A      4.565537  
     330A      4.584171   331A      4.610750   332A      4.658916  
     333A      4.668889   334A      4.683767   335A      4.716224  
     336A      4.720426   337A      4.744642   338A      4.754812  
     339A      4.772070   340A      4.794790   341A      4.813792  
     342A      4.871178   343A      4.872214   344A      4.887070  
     345A      4.900293   346A      4.942732   347A      4.950897  
     348A      4.963890   349A      4.990474   350A      5.005848  
     351A      5.038860   352A      5.058033   353A      5.072493  
     354A      5.112942   355A      5.138531   356A      5.152328  
     357A      5.185511   358A      5.192012   359A      5.222904  
     360A      5.250725   361A      5.255674   362A      5.276255  
     363A      5.305632   364A      5.310559   365A      5.327148  
     366A      5.350253   367A      5.372938   368A      5.396314  
     369A      5.440269   370A      5.459504   371A      5.465230  
     372A      5.471778   373A      5.503721   374A      5.528978  
     375A      5.576660   376A      5.595670   377A      5.606386  
     378A      5.656257   379A      5.663245   380A      5.687733  
     381A      5.705272   382A      5.747939   383A      5.762236  
     384A      5.803048   385A      5.814005   386A      5.855442  
     387A      5.895524   388A      5.938171   389A      5.976716  
     390A      6.025722   391A      6.109510   392A      6.145155  
     393A      6.168583   394A      6.204623   395A      6.229383  
     396A      6.255494   397A      6.272038   398A      6.336218  
     399A      6.344009   400A      6.372865   401A      6.392740  
     402A      6.487963   403A      6.560913   404A      6.621737  
     405A      6.748215   406A      6.782356   407A      6.831012  
     408A      6.853056   409A      6.869770   410A      6.981740  
     411A     18.164957   412A     18.237311   413A     18.896836  
     414A     19.604666  

    Final Occupation by Irrep:
              A 
    DOCC [    17 ]

  Energy converged.

  @DF-RHF Final Energy:  -157.34862429115725

   => Energetics <=

    Nuclear Repulsion Energy =            131.8415933588489963
    One-Electron Energy =                -471.7829407606887457
    Two-Electron Energy =                 182.5927231106824706
    DFT Exchange-Correlation Energy =       0.0000000000000000
    Empirical Dispersion Energy =           0.0000000000000000
    PCM Polarization Energy =               0.0000000000000000
    EFP Energy =                            0.0000000000000000
    Total Energy =                       -157.3486242911572504



Properties will be evaluated at   0.000000,   0.000000,   0.000000 Bohr

Properties computed using the SCF density matrix

  Nuclear Dipole Moment: (a.u.)
     X:     0.0012      Y:     0.0000      Z:    -0.0004

  Electronic Dipole Moment: (a.u.)
     X:    -0.0010      Y:    -0.0001      Z:     0.0017

  Dipole Moment: (a.u.)
     X:     0.0001      Y:    -0.0001      Z:     0.0013     Total:     0.0013

  Dipole Moment: (Debye)
     X:     0.0003      Y:    -0.0002      Z:     0.0034     Total:     0.0034


*** tstop() called on cpu-6-1.local at Wed Jun 14 14:20:52 2017
Module time:
	user time   =      88.51 seconds =       1.48 minutes
	system time =       0.89 seconds =       0.01 minutes
	total time  =         91 seconds =       1.52 minutes
Total time:
	user time   =      88.52 seconds =       1.48 minutes
	system time =       0.89 seconds =       0.01 minutes
	total time  =         91 seconds =       1.52 minutes

  //>>>>>>>>>>>>>>>>>>>>>>>>>>>>>>>>>>>//
  //               DFMP2               //
  //<<<<<<<<<<<<<<<<<<<<<<<<<<<<<<<<<<<//

   => Loading Basis Set <=

    Name: (AUG-CC-PVTZ AUX)
    Role: RIFIT
    Keyword: DF_BASIS_MP2
    atoms 1-3, 5-6, 8-9, 11-13 entry H          line    29 file /cbio/jclab/home/chayas/anaconda/envs/py35/share/psi4/basis/aug-cc-pvtz-ri.gbs 
    atoms 4, 7, 10, 14         entry C          line   147 file /cbio/jclab/home/chayas/anaconda/envs/py35/share/psi4/basis/aug-cc-pvtz-ri.gbs 

	 --------------------------------------------------------
	                          DF-MP2                         
	      2nd-Order Density-Fitted Moller-Plesset Theory     
	              RMP2 Wavefunction,   1 Threads             
	                                                         
	        Rob Parrish, Justin Turney, Andy Simmonett,      
	           Ed Hohenstein, and C. David Sherrill          
	 --------------------------------------------------------

   => Auxiliary Basis Set <=

  Basis Set: (AUG-CC-PVTZ AUX)
    Blend: AUG-CC-PVTZ-RI
    Number of shells: 252
    Number of basis function: 884
    Number of Cartesian functions: 1094
    Spherical Harmonics?: true
    Max angular momentum: 4

	 --------------------------------------------------------
	                 NBF =   414, NAUX =   884
	 --------------------------------------------------------
	   CLASS    FOCC     OCC    AOCC    AVIR     VIR    FVIR
	   PAIRS       0      17      17     397     397       0
	 --------------------------------------------------------


         ------------------------------------------------------------
                                     CPHF                           
                                  Rob Parrish                       
         ------------------------------------------------------------

  ==> Geometry <==

    Molecular point group: c1
    Full point group: C1

    Geometry (in Angstrom), charge = 0, multiplicity = 1:

       Center              X                  Y                   Z               Mass       
    ------------   -----------------  -----------------  -----------------  -----------------
           H         -1.983776029323    -0.197000000000    -0.913241323559     1.007825032070
           H         -2.378776029323     0.712000000000     0.526758676441     1.007825032070
           H         -1.996776029323     1.549000000000    -0.958241323559     1.007825032070
           C         -1.774776029323     0.693000000000    -0.357241323559    12.000000000000
           H          0.252223970677     1.349000000000    -0.635241323559     1.007825032070
           H         -0.185776029323     1.086000000000     1.035758676441     1.007825032070
           C         -0.285776029323     0.714000000000     0.037758676441    12.000000000000
           H         -0.251776029323    -1.349000000000     0.634758676441     1.007825032070
           H          0.187223970677    -1.086000000000    -1.035241323559     1.007825032070
           C          0.286223970677    -0.714000000000    -0.037241323559    12.000000000000
           H          2.171223970677    -1.685000000000     0.304758676441     1.007825032070
           H          1.874223970677    -0.321000000000     1.354758676441     1.007825032070
           H          2.313223970677    -0.058000000000    -0.315241323559     1.007825032070
           C          1.774223970677    -0.693000000000     0.356758676441    12.000000000000

  Nuclear repulsion =  131.841593358848996
  Reference energy  = -157.348624291157250

  ==> Basis Set <==

  Basis Set: AUG-CC-PVTZ
    Blend: AUG-CC-PVTZ
    Number of shells: 146
    Number of basis function: 414
    Number of Cartesian functions: 470
    Spherical Harmonics?: true
    Max angular momentum: 3

  ==> CGRSolver (by Rob Parrish) <==

   Number of roots    =         1
   Preconditioning    =    JACOBI
   Convergence cutoff =     1E-06
   Maximum iterations =       100

  ==> CPHFRHamiltonian (by Rob Parrish) <== 

  ==> DFJK: Density-Fitted J/K Matrices <==

    J tasked:                  Yes
    K tasked:                  Yes
    wK tasked:                  No
    OpenMP threads:              1
    Integrals threads:           1
    Memory (MB):              3576
    Algorithm:                Core
    Integral Cache:           NONE
    Schwarz Cutoff:          1E-12
    Fitting Condition:       1E-12

   => Auxiliary Basis Set <=

  Basis Set: (AUG-CC-PVTZ AUX)
    Blend: AUG-CC-PVTZ-JKFIT
    Number of shells: 260
    Number of basis function: 876
    Number of Cartesian functions: 1074
    Spherical Harmonics?: true
    Max angular momentum: 4

  ==> CPHF Iterations <==

  => Iterations <=

             Iter  Converged  Remaining    Residual
  CGR           1          0          1   8.171E-02
  CGR           2          0          1   1.312E-02
  CGR           3          0          1   3.417E-03
  CGR           4          0          1   8.060E-04
  CGR           5          0          1   1.189E-04
  CGR           6          0          1   2.163E-05
  CGR           7          0          1   4.026E-06
  CGR           8          0          1   1.015E-06
  CGR           9          1          0   2.557E-07

    CGRSolver converged.

  ==> DFCorrGrad: Density-Fitted Correlated Gradients <==

    OpenMP threads:              1
    Integrals threads:           1
    Memory (MB):              3576
    Schwarz Cutoff:          0E+00
    Fitting Condition:       1E-12

   => Auxiliary Basis Set <=

  Basis Set: (AUG-CC-PVTZ AUX)
    Blend: AUG-CC-PVTZ-JKFIT
    Number of shells: 260
    Number of basis function: 876
    Number of Cartesian functions: 1074
    Spherical Harmonics?: true
    Max angular momentum: 4

	-----------------------------------------------------------
	 ==================> DF-MP2 Energies <==================== 
	-----------------------------------------------------------
	 Reference Energy          =    -157.3486242911572504 [Eh]
	 Singles Energy            =      -0.0000000000000000 [Eh]
	 Same-Spin Energy          =      -0.1654601824128597 [Eh]
	 Opposite-Spin Energy      =      -0.6393228252909620 [Eh]
	 Correlation Energy        =      -0.8047830077038217 [Eh]
	 Total Energy              =    -158.1534072988610831 [Eh]
	-----------------------------------------------------------
	 ================> DF-SCS-MP2 Energies <================== 
	-----------------------------------------------------------
	 SCS Same-Spin Scale       =       0.3333333333333333 [-]
	 SCS Opposite-Spin Scale   =       1.2000000000000000 [-]
	 SCS Same-Spin Energy      =      -0.0551533941376199 [Eh]
	 SCS Opposite-Spin Energy  =      -0.7671873903491543 [Eh]
	 SCS Correlation Energy    =      -0.8223407844867742 [Eh]
	 SCS Total Energy          =    -158.1709650756440340 [Eh]
	-----------------------------------------------------------


  -Total Gradient:
     Atom            X                  Y                   Z
    ------   -----------------  -----------------  -----------------
       1        0.005126005572     0.008109392589     0.006916635043
       2        0.009551232182     0.001101933677    -0.006327823906
       3        0.007715020130    -0.008714060739     0.006164573282
       4       -0.020220933958    -0.005806154219    -0.007510606115
       5       -0.008804832156    -0.006931059189     0.005589229481
       6       -0.004570192236    -0.005966463922    -0.010535392998
       7        0.017567406596     0.030057139112     0.010893300815
       8        0.008293986817     0.008606764178    -0.006381025840
       9        0.003457267406     0.005042210790     0.011508167281
      10       -0.023498037983    -0.031314139683    -0.012297932760
      11       -0.008449744000     0.010061564645    -0.000643214600
      12       -0.003306374589    -0.003999802798    -0.010996709948
      13       -0.007519411742    -0.006641961703     0.006254318316
      14        0.024658607957     0.006394637264     0.007366481952


*** tstop() called on cpu-6-1.local at Wed Jun 14 14:27:13 2017
Module time:
	user time   =     460.61 seconds =       7.68 minutes
	system time =       6.27 seconds =       0.10 minutes
	total time  =        472 seconds =       7.87 minutes
Total time:
	user time   =     460.62 seconds =       7.68 minutes
	system time =       6.27 seconds =       0.10 minutes
	total time  =        472 seconds =       7.87 minutes

			-----------------------------------------
			 OPTKING 2.0: for geometry optimizations 
			  - R.A. King,  Bethel University        
			-----------------------------------------

	Internal coordinates to be generated automatically.
	Detected frag 1 with atoms:  1 2 3 4 5 6 7 8 9 10 11 12 13 14
	---Fragment 1 Bond Connectivity---
	 1 : 4
	 2 : 4
	 3 : 4
	 4 : 1 2 3 7
	 5 : 7
	 6 : 7
	 7 : 4 5 6 10
	 8 : 10
	 9 : 10
	 10 : 7 8 9 14
	 11 : 14
	 12 : 14
	 13 : 14
	 14 : 10 11 12 13

	Assuming in current code that numbering for constraints corresponds to unified fragment.
	Fixed dihedral atom list: 
	    10     7     4     3
	---Fragment 1 Geometry and Gradient---
	 H          -3.7487934044       -0.3722760482       -1.7257759948
	 H          -4.4952352269        1.3454850066        0.9954296366
	 H          -3.7733598441        2.9271857798       -1.8108136707
	 C          -3.3538406426        1.3095802101       -0.6750882649
	 H           0.4766342287        2.5492405533       -1.2004321298
	 H          -0.3510658175        2.0522425803        1.9573002382
	 C          -0.5400384308        1.3492644589        0.0713535576
	 H          -0.4757877422       -2.5492405533        1.1995200589
	 H           0.3538020301       -2.0522425803       -1.9563225830
	 C           0.5408849172       -1.3492644589       -0.0703759024
	 H           4.1030186777       -3.1841885339        0.5759104351
	 H           3.5417700163       -0.6066020887        2.5601228746
	 H           4.3713597886       -0.1096041157       -0.5957197673
	 C           3.3527974030       -1.3095802101        0.6741761940
	             0.0051260056        0.0081093926        0.0069166350
	             0.0095512322        0.0011019337       -0.0063278239
	             0.0077150201       -0.0087140607        0.0061645733
	            -0.0202209340       -0.0058061542       -0.0075106061
	            -0.0088048322       -0.0069310592        0.0055892295
	            -0.0045701922       -0.0059664639       -0.0105353930
	             0.0175674066        0.0300571391        0.0108933008
	             0.0082939868        0.0086067642       -0.0063810258
	             0.0034572674        0.0050422108        0.0115081673
	            -0.0234980380       -0.0313141397       -0.0122979328
	            -0.0084497440        0.0100615646       -0.0006432146
	            -0.0033063746       -0.0039998028       -0.0109967099
	            -0.0075194117       -0.0066419617        0.0062543183
	             0.0246586080        0.0063946373        0.0073664820

	Previous optimization step data not found.  Starting new optimization.

	---Fragment 1 Intrafragment Coordinates---
	 - Coordinate -           - BOHR/RAD -       - ANG/DEG -
	 R(1,4)           =         2.022022	       1.070008
	 R(2,4)           =         2.023537	       1.070810
	 R(3,4)           =         2.020524	       1.069215
	 R(4,7)           =         2.911397	       1.540645
	 R(5,7)           =         2.022623	       1.070326
	 R(6,7)           =         2.021555	       1.069761
	 R(7,10)          =         2.910419	       1.540128
	 R(8,10)          =         2.021436	       1.069698
	 R(9,10)          =         2.021379	       1.069668
	 R(10,14)         =         2.909087	       1.539422
	 R(11,14)         =         2.021545	       1.069756
	 R(12,14)         =         2.021555	       1.069761
	 R(13,14)         =         2.022387	       1.070201
	 B(1,4,2)         =         1.910868	     109.484646
	 B(1,4,3)         =         1.910568	     109.467490
	 B(1,4,7)         =         1.910640	     109.471597
	 B(2,4,3)         =         1.909976	     109.433544
	 B(2,4,7)         =         1.910546	     109.466232
	 B(3,4,7)         =         1.911202	     109.503812
	 B(4,7,5)         =         1.909937	     109.431343
	 B(4,7,6)         =         1.911630	     109.528316
	 B(4,7,10)        =         1.911154	     109.501062
	 B(5,7,6)         =         1.910605	     109.469614
	 B(5,7,10)        =         1.910047	     109.437654
	 B(6,7,10)        =         1.910425	     109.459295
	 B(7,10,8)        =         1.910303	     109.452301
	 B(7,10,9)        =         1.910824	     109.482155
	 B(7,10,14)       =         1.911213	     109.504437
	 B(8,10,9)        =         1.910417	     109.458846
	 B(8,10,14)       =         1.910766	     109.478806
	 B(9,10,14)       =         1.910276	     109.450772
	 B(10,14,11)      =         1.910943	     109.488965
	 B(10,14,12)      =         1.911204	     109.503926
	 B(10,14,13)      =         1.911557	     109.524173
	 B(11,14,12)      =         1.910410	     109.458432
	 B(11,14,13)      =         1.910054	     109.438058
	 B(12,14,13)      =         1.909629	     109.413709
	 D(1,4,7,5)       =         1.744914	      99.976192
	 D(1,4,7,6)       =        -2.443727	    -140.015255
	 D(1,4,7,10)      =        -0.348657	     -19.976548
	 D(2,4,7,5)       =        -2.443639	    -140.010190
	 D(2,4,7,6)       =        -0.349094	     -20.001638
	 D(2,4,7,10)      =         1.745976	     100.037070
	 D(3,4,7,5)       =        -0.349754	     -20.039436
	 D(3,4,7,6)       =         1.744790	      99.969116
	 D(3,4,7,10)      =        -2.443324	    -139.992177
	 D(4,7,10,8)      =        -1.047368	     -60.009777
	 D(4,7,10,9)      =         1.046677	      59.970178
	 D(4,7,10,14)     =         3.141107	     179.972182
	 D(5,7,10,8)      =        -3.140871	    -179.958653
	 D(5,7,10,9)      =        -1.046826	     -59.978698
	 D(5,7,10,14)     =         1.047604	      60.023306
	 D(6,7,10,8)      =         1.048439	      60.071149
	 D(6,7,10,9)      =        -3.140701	    -179.948896
	 D(6,7,10,14)     =        -1.046271	     -59.946893
	 D(7,10,14,11)    =         3.141408	     179.989448
	 D(7,10,14,12)    =         1.046747	      59.974196
	 D(7,10,14,13)    =        -1.047335	     -60.007849
	 D(8,10,14,11)    =         1.046982	      59.987626
	 D(8,10,14,12)    =        -1.047680	     -60.027626
	 D(8,10,14,13)    =         3.141424	     179.990329
	 D(9,10,14,11)    =        -1.047012	     -59.989345
	 D(9,10,14,12)    =         3.141512	     179.995403
	 D(9,10,14,13)    =         1.047431	      60.013359

	Current energy   :      -158.1534072989

	Generating empirical Hessian (Schlegel '84) for each fragment.
	Adding user-defined constraint: Fragment 1; Coordinate 46:
		Value =    -2.443324; Fixed value    =    -2.443461
		Force =    -0.000068; Force constant =     0.500000
	Removing off-diagonal coupling between coordinate 46 and others.
	Taking RFO optimization step.
	Going to follow RFO solution 1.
	Using RFO vector 1.

	Determining step-restricting scale parameter for RS-RFO.
	Maximum step size allowed    0.10000

	 Iter      |step|        alpha        rfo_root  
	------------------------------------------------
	    0     0.21278       1.00000           1
	    1     0.16352       5.48344           1
	    2     0.12770      16.24851           1
	    3     0.10796      29.93189           1
	    4     0.10094      37.47671           1
	    5     0.10002      38.62128           1
	    6     0.10000      38.64105           1
	------------------------------------------------
	Norm of target step-size    0.10000
	Projected energy change by RFO approximation:        -0.0043476420

	Back-transformation to cartesian coordinates...
	Could not converge backtransformation.
	Using first guess instead.

	--- Internal Coordinate Step in ANG or DEG, aJ/ANG or AJ/DEG ---
	 ---------------------------------------------------------------------------
	   Coordinate                Previous        Force       Change         New 
	   ----------                --------       ------       ------       ------
	    1 R(1,4)          =      1.070008     0.093431     0.011264     1.081272
	    2 R(2,4)          =      1.070810     0.087263     0.010446     1.081255
	    3 R(3,4)          =      1.069215     0.099221     0.011825     1.081040
	    4 R(4,7)          =      1.540645     0.015094     0.002235     1.542880
	    5 R(5,7)          =      1.070326     0.099295     0.011813     1.082139
	    6 R(6,7)          =      1.069761     0.101589     0.012070     1.081831
	    7 R(7,10)         =      1.540128    -0.073137    -0.010164     1.529963
	    8 R(8,10)         =      1.069698     0.109487     0.012994     1.082692
	    9 R(9,10)         =      1.069668     0.105543     0.012526     1.082194
	   10 R(10,14)        =      1.539422    -0.047699    -0.006682     1.532741
	   11 R(11,14)        =      1.069756     0.102447     0.012192     1.081948
	   12 R(12,14)        =      1.069761     0.098527     0.011739     1.081499
	   13 R(13,14)        =      1.070201     0.096025     0.011449     1.081650
	   14 B(1,4,2)        =    109.484646    -0.000297    -0.714478   108.770167
	   15 B(1,4,3)        =    109.467490    -0.000326    -0.785284   108.682206
	   16 B(1,4,7)        =    109.471597     0.000187     0.388473   109.860070
	   17 B(2,4,3)        =    109.433544    -0.000360    -0.760302   108.673241
	   18 B(2,4,7)        =    109.466232     0.000340     0.788406   110.254638
	   19 B(3,4,7)        =    109.503812     0.000456     1.051700   110.555512
	   20 B(4,7,5)        =    109.431343    -0.000080     0.011634   109.442976
	   21 B(4,7,6)        =    109.528316    -0.000111    -0.085452   109.442864
	   22 B(4,7,10)       =    109.501062     0.000745     1.537025   111.038088
	   23 B(5,7,6)        =    109.469614     0.000001    -0.276123   109.193491
	   24 B(5,7,10)       =    109.437654    -0.000271    -0.599878   108.837776
	   25 B(6,7,10)       =    109.459295    -0.000285    -0.602154   108.857141
	   26 B(7,10,8)       =    109.452301    -0.000213    -0.425094   109.027206
	   27 B(7,10,9)       =    109.482155    -0.000253    -0.536877   108.945279
	   28 B(7,10,14)      =    109.504437     0.000688     1.415445   110.919882
	   29 B(8,10,9)       =    109.458846     0.000022    -0.186047   109.272799
	   30 B(8,10,14)      =    109.478806    -0.000136    -0.171588   109.307219
	   31 B(9,10,14)      =    109.450772    -0.000109    -0.105753   109.345019
	   32 B(10,14,11)     =    109.488965     0.000416     0.968393   110.457358
	   33 B(10,14,12)     =    109.503926     0.000132     0.286368   109.790294
	   34 B(10,14,13)     =    109.524173     0.000103     0.219115   109.743288
	   35 B(11,14,12)     =    109.458432    -0.000249    -0.549022   108.909410
	   36 B(11,14,13)     =    109.438058    -0.000239    -0.528563   108.909495
	   37 B(12,14,13)     =    109.413709    -0.000163    -0.411972   109.001738
	   38 D(1,4,7,5)      =     99.976192     0.000007     0.057855   100.034047
	   39 D(1,4,7,6)      =   -140.015255    -0.000020    -0.324941  -140.340197
	   40 D(1,4,7,10)     =    -19.976548    -0.000011    -0.164519   -20.141067
	   41 D(2,4,7,5)      =   -140.010190    -0.000003    -0.090649  -140.100839
	   42 D(2,4,7,6)      =    -20.001638    -0.000029    -0.473445   -20.475083
	   43 D(2,4,7,10)     =    100.037070    -0.000020    -0.313023    99.724047
	   44 D(3,4,7,5)      =    -20.039436     0.000008     0.127643   -19.911793
	   45 D(3,4,7,6)      =     99.969116    -0.000019    -0.255153    99.713963
	   46 D(3,4,7,10)     =   -139.992177    -0.000009    -0.094730  -140.086907
	   47 D(4,7,10,8)     =    -60.009777     0.000035     0.482233   -59.527544
	   48 D(4,7,10,9)     =     59.970178    -0.000024    -0.320357    59.649821
	   49 D(4,7,10,14)    =    179.972182     0.000006     0.085941   180.058123
	   50 D(5,7,10,8)     =   -179.958653    -0.000009    -0.102677  -180.061329
	   51 D(5,7,10,9)     =    -59.978698    -0.000068    -0.905267   -60.883965
	   52 D(5,7,10,14)    =     60.023306    -0.000038    -0.498968    59.524337
	   53 D(6,7,10,8)     =     60.071149     0.000068     0.947502    61.018650
	   54 D(6,7,10,9)     =   -179.948896     0.000009     0.144911  -179.803985
	   55 D(6,7,10,14)    =    -59.946893     0.000040     0.551210   -59.395683
	   56 D(7,10,14,11)   =    179.989448     0.000003     0.041863   180.031311
	   57 D(7,10,14,12)   =     59.974196    -0.000004    -0.063903    59.910293
	   58 D(7,10,14,13)   =    -60.007849     0.000009     0.130221   -59.877627
	   59 D(8,10,14,11)   =     59.987626    -0.000015    -0.204294    59.783332
	   60 D(8,10,14,12)   =    -60.027626    -0.000022    -0.310060   -60.337687
	   61 D(8,10,14,13)   =    179.990329    -0.000009    -0.115936   179.874394
	   62 D(9,10,14,11)   =    -59.989345     0.000013     0.191372   -59.797973
	   63 D(9,10,14,12)   =    179.995403     0.000007     0.085605   180.081009
	   64 D(9,10,14,13)   =     60.013359     0.000019     0.279730    60.293089
	 ---------------------------------------------------------------------------
	Successfully symmetrized geometry.
	 Forces used to impose fixed constraints are not included.
	  Forces zeroed: 46 

  ==> Convergence Check <==

  Measures of convergence in internal coordinates in au.
  Criteria marked as inactive (o), active & met (*), and active & unmet ( ).
  --------------------------------------------------------------------------------------------- ~
   Step     Total Energy     Delta E     MAX Force     RMS Force      MAX Disp      RMS Disp    ~
  --------------------------------------------------------------------------------------------- ~
    Convergence Criteria    1.00e-06 *    3.00e-04 *             o    1.20e-03 *             o  ~
  --------------------------------------------------------------------------------------------- ~
      1    -158.15340730   -1.58e+02      1.33e-02      5.65e-03 o    2.68e-02      1.25e-02 o  ~
  ---------------------------------------------------------------------------------------------

	Writing optimization data to binary file.
	Structure for next step:
	Cartesian Geometry (in Angstrom)
	    H    -2.0123186183  -0.1925487603  -0.9238973710
	    H    -2.4032067164   0.7186359105   0.5278605428
	    H    -2.0196345856   1.5638687929  -0.9636813212
	    C    -1.7836355184   0.7000371979  -0.3580843993
	    H     0.2572772159   1.3446409670  -0.6447649247
	    H    -0.1848185895   1.0806804322   1.0422472124
	    C    -0.2913018342   0.7043772052   0.0335775496
	    H    -0.2480024743  -1.3490400135   0.6456984117
	    H     0.1954192069  -1.0824509123  -1.0422403723
	    C     0.2980786036  -0.7059432203  -0.0328613589
	    H     2.1892732058  -1.6990684925   0.3080289558
	    H     1.8909039588  -0.3247915855   1.3668028327
	    H     2.3329929432  -0.0596744745  -0.3171349702
	    C     1.7801087920  -0.6987230469   0.3580706829
			--------------------------
			 OPTKING Finished Execution 
			--------------------------

    Structure for next step:
    Molecular point group: c1
    Full point group: C1

    Geometry (in Angstrom), charge = 0, multiplicity = 1:

    H           -2.012953443119    -0.192501091299    -0.924023756183
    H           -2.403841541228     0.718683579545     0.527734157673
    H           -2.020269410429     1.563916461907    -0.963807706378
    C           -1.784270343289     0.700084866969    -0.358210784474
    H            0.256642391050     1.344688636065    -0.644891309842
    H           -0.185453414380     1.080728101214     1.042120827201
    C           -0.291936659028     0.704424874273     0.033451164431
    H           -0.248637299175    -1.348992344460     0.645572026527
    H            0.194784382014    -1.082403243291    -1.042366757470
    C            0.297443778725    -0.705895551284    -0.032987744032
    H            2.188638380981    -1.699020823448     0.307902570671
    H            1.890269133978    -0.324743916462     1.366676447558
    H            2.332358118322    -0.059626805476    -0.317261355402
    C            1.779473967168    -0.698675377896     0.357944297760

gradient() will perform analytic gradient computation.

*** tstart() called on cpu-6-1.local
*** at Wed Jun 14 14:27:13 2017

    SCF Algorithm Type (re)set to DF.

*** tstart() called on cpu-6-1.local
*** at Wed Jun 14 14:27:13 2017

   => Loading Basis Set <=

    Name: AUG-CC-PVTZ
    Role: ORBITAL
    Keyword: BASIS
    atoms 1-3, 5-6, 8-9, 11-13 entry H          line    34 file /cbio/jclab/home/chayas/anaconda/envs/py35/share/psi4/basis/aug-cc-pvtz.gbs 
    atoms 4, 7, 10, 14         entry C          line   221 file /cbio/jclab/home/chayas/anaconda/envs/py35/share/psi4/basis/aug-cc-pvtz.gbs 


         ---------------------------------------------------------
                                   SCF
            by Justin Turney, Rob Parrish, and Andy Simmonett
                              RHF Reference
                        1 Threads,   4768 MiB Core
         ---------------------------------------------------------

  ==> Geometry <==

    Molecular point group: c1
    Full point group: C1

    Geometry (in Angstrom), charge = 0, multiplicity = 1:

       Center              X                  Y                   Z               Mass       
    ------------   -----------------  -----------------  -----------------  -----------------
           H         -2.012953443119    -0.192501091299    -0.924023756183     1.007825032070
           H         -2.403841541228     0.718683579545     0.527734157673     1.007825032070
           H         -2.020269410429     1.563916461907    -0.963807706378     1.007825032070
           C         -1.784270343289     0.700084866969    -0.358210784474    12.000000000000
           H          0.256642391050     1.344688636065    -0.644891309842     1.007825032070
           H         -0.185453414380     1.080728101214     1.042120827201     1.007825032070
           C         -0.291936659028     0.704424874273     0.033451164431    12.000000000000
           H         -0.248637299175    -1.348992344460     0.645572026527     1.007825032070
           H          0.194784382014    -1.082403243291    -1.042366757470     1.007825032070
           C          0.297443778725    -0.705895551284    -0.032987744032    12.000000000000
           H          2.188638380981    -1.699020823448     0.307902570671     1.007825032070
           H          1.890269133978    -0.324743916462     1.366676447558     1.007825032070
           H          2.332358118322    -0.059626805476    -0.317261355402     1.007825032070
           C          1.779473967168    -0.698675377896     0.357944297760    12.000000000000

  Running in c1 symmetry.

  Rotational constants: A =      0.77697  B =      0.12305  C =      0.11532 [cm^-1]
  Rotational constants: A =  23293.08853  B =   3688.91904  C =   3457.21183 [MHz]
  Nuclear repulsion =  131.300965388846407

  Charge       = 0
  Multiplicity = 1
  Electrons    = 34
  Nalpha       = 17
  Nbeta        = 17

  ==> Algorithm <==

  SCF Algorithm Type is DF.
  DIIS enabled.
  MOM disabled.
  Fractional occupation disabled.
  Guess Type is READ.
  Energy threshold   = 1.00e-10
  Density threshold  = 1.00e-10
  Integral threshold = 0.00e+00

  ==> Primary Basis <==

  Basis Set: AUG-CC-PVTZ
    Blend: AUG-CC-PVTZ
    Number of shells: 146
    Number of basis function: 414
    Number of Cartesian functions: 470
    Spherical Harmonics?: true
    Max angular momentum: 3

   => Loading Basis Set <=

    Name: (AUG-CC-PVTZ AUX)
    Role: JKFIT
    Keyword: DF_BASIS_SCF
    atoms 1-3, 5-6, 8-9, 11-13 entry H          line    69 file /cbio/jclab/home/chayas/anaconda/envs/py35/share/psi4/basis/aug-cc-pvtz-jkfit.gbs 
    atoms 4, 7, 10, 14         entry C          line   161 file /cbio/jclab/home/chayas/anaconda/envs/py35/share/psi4/basis/aug-cc-pvtz-jkfit.gbs 

  Reading orbitals from file 180, no projection.

  ==> Pre-Iterations <==

   -------------------------------------------------------
    Irrep   Nso     Nmo     Nalpha   Nbeta   Ndocc  Nsocc
   -------------------------------------------------------
     A        414     414       0       0       0       0
   -------------------------------------------------------
    Total     414     414      17      17      17       0
   -------------------------------------------------------

  ==> Integral Setup <==

  ==> DFJK: Density-Fitted J/K Matrices <==

    J tasked:                  Yes
    K tasked:                  Yes
    wK tasked:                  No
    OpenMP threads:              1
    Integrals threads:           1
    Memory (MB):              3576
    Algorithm:                Core
    Integral Cache:           NONE
    Schwarz Cutoff:          1E-12
    Fitting Condition:       1E-12

   => Auxiliary Basis Set <=

  Basis Set: (AUG-CC-PVTZ AUX)
    Blend: AUG-CC-PVTZ-JKFIT
    Number of shells: 260
    Number of basis function: 876
    Number of Cartesian functions: 1074
    Spherical Harmonics?: true
    Max angular momentum: 4

  Minimum eigenvalue in the overlap matrix is 9.0724456023E-06.
  Using Symmetric Orthogonalization.

  SCF Guess: Orbitals guess was supplied from a previous computation.

  ==> Iterations <==

                           Total Energy        Delta E     RMS |[F,P]|

   @DF-RHF iter   0:  -157.27573924608129   -1.57276e+02   1.21191e-04 
   @DF-RHF iter   1:  -157.35115106305571   -7.54118e-02   4.93958e-05 
   @DF-RHF iter   2:  -157.35139935064802   -2.48288e-04   2.55312e-05 DIIS
   @DF-RHF iter   3:  -157.35145229555971   -5.29449e-05   2.76663e-06 DIIS
   @DF-RHF iter   4:  -157.35145366330391   -1.36774e-06   7.47058e-07 DIIS
   @DF-RHF iter   5:  -157.35145374746793   -8.41640e-08   2.50406e-07 DIIS
   @DF-RHF iter   6:  -157.35145375721623   -9.74831e-09   4.29769e-08 DIIS
   @DF-RHF iter   7:  -157.35145375762886   -4.12626e-10   6.70489e-09 DIIS
   @DF-RHF iter   8:  -157.35145375763801   -9.15179e-12   1.41034e-09 DIIS
   @DF-RHF iter   9:  -157.35145375763898   -9.66338e-13   3.28759e-10 DIIS
   @DF-RHF iter  10:  -157.35145375763801    9.66338e-13   6.96887e-11 DIIS

  ==> Post-Iterations <==

    Orbital Energies (a.u.)
    -----------------------

    Doubly Occupied:                                                      

       1A    -11.210421     2A    -11.209558     3A    -11.203444  
       4A    -11.202995     5A     -1.070262     6A     -0.978820  
       7A     -0.860536     8A     -0.789917     9A     -0.643952  
      10A     -0.584104    11A     -0.573122    12A     -0.572500  
      13A     -0.510783    14A     -0.501406    15A     -0.468003  
      16A     -0.465004    17A     -0.448309  

    Virtual:                                                              

      18A      0.032328    19A      0.037481    20A      0.039491  
      21A      0.040424    22A      0.058104    23A      0.058789  
      24A      0.060221    25A      0.061143    26A      0.077921  
      27A      0.082952    28A      0.102219    29A      0.112646  
      30A      0.122605    31A      0.130623    32A      0.138344  
      33A      0.141761    34A      0.142184    35A      0.145199  
      36A      0.148333    37A      0.160821    38A      0.166109  
      39A      0.166339    40A      0.172427    41A      0.200125  
      42A      0.202094    43A      0.215912    44A      0.226162  
      45A      0.240848    46A      0.249406    47A      0.253054  
      48A      0.266157    49A      0.277895    50A      0.282195  
      51A      0.288028    52A      0.311752    53A      0.318757  
      54A      0.331370    55A      0.338138    56A      0.346239  
      57A      0.355933    58A      0.357239    59A      0.358704  
      60A      0.366951    61A      0.367499    62A      0.370734  
      63A      0.381943    64A      0.387033    65A      0.389474  
      66A      0.391034    67A      0.396687    68A      0.399331  
      69A      0.403811    70A      0.409242    71A      0.415993  
      72A      0.429447    73A      0.440490    74A      0.444886  
      75A      0.447737    76A      0.459950    77A      0.460745  
      78A      0.463732    79A      0.468511    80A      0.485068  
      81A      0.488901    82A      0.498844    83A      0.501761  
      84A      0.507070    85A      0.515597    86A      0.517683  
      87A      0.521670    88A      0.529413    89A      0.542015  
      90A      0.543061    91A      0.546955    92A      0.555008  
      93A      0.566260    94A      0.573875    95A      0.581445  
      96A      0.587912    97A      0.598918    98A      0.611269  
      99A      0.612646   100A      0.633786   101A      0.640421  
     102A      0.653746   103A      0.676488   104A      0.678672  
     105A      0.697563   106A      0.720638   107A      0.757051  
     108A      0.772981   109A      0.796915   110A      0.811078  
     111A      0.821180   112A      0.827528   113A      0.834160  
     114A      0.841633   115A      0.845515   116A      0.859581  
     117A      0.863642   118A      0.877321   119A      0.879469  
     120A      0.888299   121A      0.894687   122A      0.901125  
     123A      0.915205   124A      0.918600   125A      0.921939  
     126A      0.926705   127A      0.929846   128A      0.935464  
     129A      0.945472   130A      0.955040   131A      0.962087  
     132A      0.975117   133A      0.979986   134A      0.990710  
     135A      0.995649   136A      1.015442   137A      1.029860  
     138A      1.031220   139A      1.044242   140A      1.069708  
     141A      1.076200   142A      1.077417   143A      1.087836  
     144A      1.092810   145A      1.101287   146A      1.108599  
     147A      1.117809   148A      1.134256   149A      1.149581  
     150A      1.153758   151A      1.159906   152A      1.168512  
     153A      1.176130   154A      1.191362   155A      1.208874  
     156A      1.215260   157A      1.225293   158A      1.238428  
     159A      1.243577   160A      1.246641   161A      1.256857  
     162A      1.266697   163A      1.273051   164A      1.286114  
     165A      1.291761   166A      1.303363   167A      1.310025  
     168A      1.317705   169A      1.336360   170A      1.352789  
     171A      1.366616   172A      1.388123   173A      1.407773  
     174A      1.416281   175A      1.426365   176A      1.439028  
     177A      1.452346   178A      1.477282   179A      1.490330  
     180A      1.501847   181A      1.516994   182A      1.527209  
     183A      1.539520   184A      1.554653   185A      1.566210  
     186A      1.584824   187A      1.599423   188A      1.605729  
     189A      1.623016   190A      1.638214   191A      1.645645  
     192A      1.663828   193A      1.679531   194A      1.685854  
     195A      1.698246   196A      1.701224   197A      1.709509  
     198A      1.711985   199A      1.727150   200A      1.733258  
     201A      1.738504   202A      1.756356   203A      1.757337  
     204A      1.764378   205A      1.771879   206A      1.776391  
     207A      1.784778   208A      1.808327   209A      1.818979  
     210A      1.849269   211A      1.857205   212A      1.877984  
     213A      1.896340   214A      1.907308   215A      1.920476  
     216A      1.934228   217A      1.959503   218A      1.965203  
     219A      1.984922   220A      1.994939   221A      2.001022  
     222A      2.017760   223A      2.023766   224A      2.032114  
     225A      2.047811   226A      2.054413   227A      2.077442  
     228A      2.085069   229A      2.096829   230A      2.154352  
     231A      2.171503   232A      2.181805   233A      2.187907  
     234A      2.211426   235A      2.234198   236A      2.254395  
     237A      2.263582   238A      2.278225   239A      2.292111  
     240A      2.301107   241A      2.318799   242A      2.335992  
     243A      2.341267   244A      2.345525   245A      2.365311  
     246A      2.380722   247A      2.410085   248A      2.438655  
     249A      2.461961   250A      2.473869   251A      2.507542  
     252A      2.532641   253A      2.591526   254A      2.610506  
     255A      2.624771   256A      2.666181   257A      2.792420  
     258A      2.887302   259A      2.972115   260A      3.041148  
     261A      3.205231   262A      3.245690   263A      3.293568  
     264A      3.364483   265A      3.397276   266A      3.427487  
     267A      3.442837   268A      3.456835   269A      3.476115  
     270A      3.486899   271A      3.515661   272A      3.561259  
     273A      3.571361   274A      3.585388   275A      3.593423  
     276A      3.603546   277A      3.625320   278A      3.659890  
     279A      3.680367   280A      3.682426   281A      3.695669  
     282A      3.712601   283A      3.725249   284A      3.741054  
     285A      3.744724   286A      3.780280   287A      3.786841  
     288A      3.797563   289A      3.824126   290A      3.830360  
     291A      3.847548   292A      3.867273   293A      3.879845  
     294A      3.886292   295A      3.902441   296A      3.912317  
     297A      3.960369   298A      3.972897   299A      3.973912  
     300A      3.982020   301A      3.998058   302A      4.004811  
     303A      4.017883   304A      4.027271   305A      4.049839  
     306A      4.056669   307A      4.070241   308A      4.087290  
     309A      4.149880   310A      4.168018   311A      4.180990  
     312A      4.191896   313A      4.225191   314A      4.231390  
     315A      4.238533   316A      4.259560   317A      4.267639  
     318A      4.284451   319A      4.307087   320A      4.318760  
     321A      4.341991   322A      4.362549   323A      4.374840  
     324A      4.408175   325A      4.436063   326A      4.457158  
     327A      4.507783   328A      4.517177   329A      4.553023  
     330A      4.566123   331A      4.596598   332A      4.640332  
     333A      4.646645   334A      4.667288   335A      4.701070  
     336A      4.705418   337A      4.725751   338A      4.737444  
     339A      4.755862   340A      4.787242   341A      4.797361  
     342A      4.849039   343A      4.856945   344A      4.867760  
     345A      4.880786   346A      4.928108   347A      4.936264  
     348A      4.947297   349A      4.968871   350A      4.991888  
     351A      5.024111   352A      5.039553   353A      5.053286  
     354A      5.092621   355A      5.110781   356A      5.130870  
     357A      5.160009   358A      5.174795   359A      5.203306  
     360A      5.228500   361A      5.238956   362A      5.253922  
     363A      5.280136   364A      5.294297   365A      5.309100  
     366A      5.320838   367A      5.353429   368A      5.371409  
     369A      5.415071   370A      5.432240   371A      5.444234  
     372A      5.449220   373A      5.482380   374A      5.495326  
     375A      5.551131   376A      5.568095   377A      5.570042  
     378A      5.622370   379A      5.630557   380A      5.658768  
     381A      5.676115   382A      5.718316   383A      5.745843  
     384A      5.765694   385A      5.795746   386A      5.819195  
     387A      5.860855   388A      5.903633   389A      5.943038  
     390A      5.999400   391A      6.058717   392A      6.111069  
     393A      6.140267   394A      6.167348   395A      6.190282  
     396A      6.215840   397A      6.234083   398A      6.295607  
     399A      6.302692   400A      6.333204   401A      6.355632  
     402A      6.457012   403A      6.556764   404A      6.599813  
     405A      6.736293   406A      6.777685   407A      6.827448  
     408A      6.848978   409A      6.862659   410A      6.983976  
     411A     17.998555   412A     18.108884   413A     18.814336  
     414A     19.352220  

    Final Occupation by Irrep:
              A 
    DOCC [    17 ]

  Energy converged.

  @DF-RHF Final Energy:  -157.35145375763801

   => Energetics <=

    Nuclear Repulsion Energy =            131.3009653888464072
    One-Electron Energy =                -470.7185723213027586
    Two-Electron Energy =                 182.0661531748183393
    DFT Exchange-Correlation Energy =       0.0000000000000000
    Empirical Dispersion Energy =           0.0000000000000000
    PCM Polarization Energy =               0.0000000000000000
    EFP Energy =                            0.0000000000000000
    Total Energy =                       -157.3514537576380121



Properties will be evaluated at   0.000000,   0.000000,   0.000000 Bohr

Properties computed using the SCF density matrix

  Nuclear Dipole Moment: (a.u.)
     X:    -0.0079      Y:     0.0007      Z:    -0.0022

  Electronic Dipole Moment: (a.u.)
     X:     0.0082      Y:    -0.0016      Z:     0.0032

  Dipole Moment: (a.u.)
     X:     0.0002      Y:    -0.0009      Z:     0.0010     Total:     0.0014

  Dipole Moment: (Debye)
     X:     0.0006      Y:    -0.0022      Z:     0.0026     Total:     0.0035


*** tstop() called on cpu-6-1.local at Wed Jun 14 14:28:30 2017
Module time:
	user time   =      75.50 seconds =       1.26 minutes
	system time =       0.83 seconds =       0.01 minutes
	total time  =         77 seconds =       1.28 minutes
Total time:
	user time   =     536.20 seconds =       8.94 minutes
	system time =       7.21 seconds =       0.12 minutes
	total time  =        549 seconds =       9.15 minutes

  //>>>>>>>>>>>>>>>>>>>>>>>>>>>>>>>>>>>//
  //               DFMP2               //
  //<<<<<<<<<<<<<<<<<<<<<<<<<<<<<<<<<<<//

   => Loading Basis Set <=

    Name: (AUG-CC-PVTZ AUX)
    Role: RIFIT
    Keyword: DF_BASIS_MP2
    atoms 1-3, 5-6, 8-9, 11-13 entry H          line    29 file /cbio/jclab/home/chayas/anaconda/envs/py35/share/psi4/basis/aug-cc-pvtz-ri.gbs 
    atoms 4, 7, 10, 14         entry C          line   147 file /cbio/jclab/home/chayas/anaconda/envs/py35/share/psi4/basis/aug-cc-pvtz-ri.gbs 

	 --------------------------------------------------------
	                          DF-MP2                         
	      2nd-Order Density-Fitted Moller-Plesset Theory     
	              RMP2 Wavefunction,   1 Threads             
	                                                         
	        Rob Parrish, Justin Turney, Andy Simmonett,      
	           Ed Hohenstein, and C. David Sherrill          
	 --------------------------------------------------------

   => Auxiliary Basis Set <=

  Basis Set: (AUG-CC-PVTZ AUX)
    Blend: AUG-CC-PVTZ-RI
    Number of shells: 252
    Number of basis function: 884
    Number of Cartesian functions: 1094
    Spherical Harmonics?: true
    Max angular momentum: 4

	 --------------------------------------------------------
	                 NBF =   414, NAUX =   884
	 --------------------------------------------------------
	   CLASS    FOCC     OCC    AOCC    AVIR     VIR    FVIR
	   PAIRS       0      17      17     397     397       0
	 --------------------------------------------------------


         ------------------------------------------------------------
                                     CPHF                           
                                  Rob Parrish                       
         ------------------------------------------------------------

  ==> Geometry <==

    Molecular point group: c1
    Full point group: C1

    Geometry (in Angstrom), charge = 0, multiplicity = 1:

       Center              X                  Y                   Z               Mass       
    ------------   -----------------  -----------------  -----------------  -----------------
           H         -2.012953443119    -0.192501091299    -0.924023756183     1.007825032070
           H         -2.403841541228     0.718683579545     0.527734157673     1.007825032070
           H         -2.020269410429     1.563916461907    -0.963807706378     1.007825032070
           C         -1.784270343289     0.700084866969    -0.358210784474    12.000000000000
           H          0.256642391050     1.344688636065    -0.644891309842     1.007825032070
           H         -0.185453414380     1.080728101214     1.042120827201     1.007825032070
           C         -0.291936659028     0.704424874273     0.033451164431    12.000000000000
           H         -0.248637299175    -1.348992344460     0.645572026527     1.007825032070
           H          0.194784382014    -1.082403243291    -1.042366757470     1.007825032070
           C          0.297443778725    -0.705895551284    -0.032987744032    12.000000000000
           H          2.188638380981    -1.699020823448     0.307902570671     1.007825032070
           H          1.890269133978    -0.324743916462     1.366676447558     1.007825032070
           H          2.332358118322    -0.059626805476    -0.317261355402     1.007825032070
           C          1.779473967168    -0.698675377896     0.357944297760    12.000000000000

  Nuclear repulsion =  131.300965388846407
  Reference energy  = -157.351453757638012

  ==> Basis Set <==

  Basis Set: AUG-CC-PVTZ
    Blend: AUG-CC-PVTZ
    Number of shells: 146
    Number of basis function: 414
    Number of Cartesian functions: 470
    Spherical Harmonics?: true
    Max angular momentum: 3

  ==> CGRSolver (by Rob Parrish) <==

   Number of roots    =         1
   Preconditioning    =    JACOBI
   Convergence cutoff =     1E-06
   Maximum iterations =       100

  ==> CPHFRHamiltonian (by Rob Parrish) <== 

  ==> DFJK: Density-Fitted J/K Matrices <==

    J tasked:                  Yes
    K tasked:                  Yes
    wK tasked:                  No
    OpenMP threads:              1
    Integrals threads:           1
    Memory (MB):              3576
    Algorithm:                Core
    Integral Cache:           NONE
    Schwarz Cutoff:          1E-12
    Fitting Condition:       1E-12

   => Auxiliary Basis Set <=

  Basis Set: (AUG-CC-PVTZ AUX)
    Blend: AUG-CC-PVTZ-JKFIT
    Number of shells: 260
    Number of basis function: 876
    Number of Cartesian functions: 1074
    Spherical Harmonics?: true
    Max angular momentum: 4

  ==> CPHF Iterations <==

  => Iterations <=

             Iter  Converged  Remaining    Residual
  CGR           1          0          1   8.297E-02
  CGR           2          0          1   1.328E-02
  CGR           3          0          1   3.489E-03
  CGR           4          0          1   8.150E-04
  CGR           5          0          1   1.202E-04
  CGR           6          0          1   2.205E-05
  CGR           7          0          1   3.962E-06
  CGR           8          1          0   9.356E-07

    CGRSolver converged.

  ==> DFCorrGrad: Density-Fitted Correlated Gradients <==

    OpenMP threads:              1
    Integrals threads:           1
    Memory (MB):              3576
    Schwarz Cutoff:          0E+00
    Fitting Condition:       1E-12

   => Auxiliary Basis Set <=

  Basis Set: (AUG-CC-PVTZ AUX)
    Blend: AUG-CC-PVTZ-JKFIT
    Number of shells: 260
    Number of basis function: 876
    Number of Cartesian functions: 1074
    Spherical Harmonics?: true
    Max angular momentum: 4

	-----------------------------------------------------------
	 ==================> DF-MP2 Energies <==================== 
	-----------------------------------------------------------
	 Reference Energy          =    -157.3514537576380121 [Eh]
	 Singles Energy            =      -0.0000000000000001 [Eh]
	 Same-Spin Energy          =      -0.1653432801151198 [Eh]
	 Opposite-Spin Energy      =      -0.6396836851445055 [Eh]
	 Correlation Energy        =      -0.8050269652596255 [Eh]
	 Total Energy              =    -158.1564807228976406 [Eh]
	-----------------------------------------------------------
	 ================> DF-SCS-MP2 Energies <================== 
	-----------------------------------------------------------
	 SCS Same-Spin Scale       =       0.3333333333333333 [-]
	 SCS Opposite-Spin Scale   =       1.2000000000000000 [-]
	 SCS Same-Spin Energy      =      -0.0551144267050399 [Eh]
	 SCS Opposite-Spin Energy  =      -0.7676204221734065 [Eh]
	 SCS Correlation Energy    =      -0.8227348488784466 [Eh]
	 SCS Total Energy          =    -158.1741886065164522 [Eh]
	-----------------------------------------------------------


  -Total Gradient:
     Atom            X                  Y                   Z
    ------   -----------------  -----------------  -----------------
       1        0.002555025008     0.002351042978     0.002870608221
       2        0.004013002536     0.001219123704    -0.001361580240
       3        0.003609987035    -0.002685342834     0.001326999358
       4       -0.012744134118    -0.003167835702    -0.004355201413
       5       -0.003987063059    -0.003223415742     0.000457695702
       6       -0.003231242206    -0.004171466568    -0.002745315086
       7        0.012071922021     0.015775789120     0.006806933134
       8        0.003717078359     0.004236495470    -0.000434953593
       9        0.002569461261     0.003210258596     0.003398931203
      10       -0.013202251829    -0.015942175804    -0.007374389145
      11       -0.003474268175     0.002582885076    -0.000499152291
      12       -0.002231888700    -0.001450210013    -0.003552690532
      13       -0.003432529758    -0.002249257672     0.001431779280
      14        0.013766901624     0.003514109390     0.004030335402


*** tstop() called on cpu-6-1.local at Wed Jun 14 14:34:52 2017
Module time:
	user time   =     450.31 seconds =       7.51 minutes
	system time =       5.50 seconds =       0.09 minutes
	total time  =        459 seconds =       7.65 minutes
Total time:
	user time   =     911.01 seconds =      15.18 minutes
	system time =      11.88 seconds =       0.20 minutes
	total time  =        931 seconds =      15.52 minutes

			-----------------------------------------
			 OPTKING 2.0: for geometry optimizations 
			  - R.A. King,  Bethel University        
			-----------------------------------------

	Previous internal coordinate definitions found.
	---Fragment 1 Geometry and Gradient---
	 H          -3.8039307257       -0.3637743428       -1.7461518395
	 H          -4.5426021798        1.3581151415        0.9972730290
	 H          -3.8177559004        2.9553738077       -1.8213326098
	 C          -3.3717822958        1.3229686683       -0.6769202805
	 H           0.4849838332        2.5410932562       -1.2186679611
	 H          -0.3504561636        2.0422801354        1.9693229608
	 C          -0.5516803337        1.3311700936        0.0632135396
	 H          -0.4698564019       -2.5492260864        1.2199543292
	 H           0.3680891370       -2.0454456952       -1.9697877016
	 C           0.5620872817       -1.3339492703       -0.0623378020
	 H           4.1359271440       -3.2106840504        0.5818515342
	 H           3.5720909807       -0.6136770654        2.5826441981
	 H           4.4075180874       -0.1126783325       -0.5995370743
	 C           3.3627184585       -1.3203051200        0.6764166936
	             0.0025550250        0.0023510430        0.0028706082
	             0.0040130025        0.0012191237       -0.0013615802
	             0.0036099870       -0.0026853428        0.0013269994
	            -0.0127441341       -0.0031678357       -0.0043552014
	            -0.0039870631       -0.0032234157        0.0004576957
	            -0.0032312422       -0.0041714666       -0.0027453151
	             0.0120719220        0.0157757891        0.0068069331
	             0.0037170784        0.0042364955       -0.0004349536
	             0.0025694613        0.0032102586        0.0033989312
	            -0.0132022518       -0.0159421758       -0.0073743891
	            -0.0034742682        0.0025828851       -0.0004991523
	            -0.0022318887       -0.0014502100       -0.0035526905
	            -0.0034325298       -0.0022492577        0.0014317793
	             0.0137669016        0.0035141094        0.0040303354

	---Fragment 1 Intrafragment Coordinates---
	 - Coordinate -           - BOHR/RAD -       - ANG/DEG -
	 R(1,4)           =         2.043309	       1.081272
	 R(2,4)           =         2.043276	       1.081255
	 R(3,4)           =         2.042870	       1.081040
	 R(4,7)           =         2.915620	       1.542880
	 R(5,7)           =         2.044947	       1.082139
	 R(6,7)           =         2.044363	       1.081831
	 R(7,10)          =         2.891211	       1.529963
	 R(8,10)          =         2.045991	       1.082692
	 R(9,10)          =         2.045050	       1.082194
	 R(10,14)         =         2.896460	       1.532741
	 R(11,14)         =         2.044585	       1.081948
	 R(12,14)         =         2.043738	       1.081499
	 R(13,14)         =         2.044022	       1.081650
	 B(1,4,2)         =         1.898398	     108.770167
	 B(1,4,3)         =         1.896862	     108.682206
	 B(1,4,7)         =         1.917420	     109.860070
	 B(2,4,3)         =         1.896706	     108.673241
	 B(2,4,7)         =         1.924306	     110.254638
	 B(3,4,7)         =         1.929558	     110.555512
	 B(4,7,5)         =         1.910140	     109.442976
	 B(4,7,6)         =         1.910138	     109.442864
	 B(4,7,10)        =         1.937980	     111.038088
	 B(5,7,6)         =         1.905786	     109.193491
	 B(5,7,10)        =         1.899578	     108.837776
	 B(6,7,10)        =         1.899916	     108.857141
	 B(7,10,8)        =         1.902884	     109.027206
	 B(7,10,9)        =         1.901454	     108.945279
	 B(7,10,14)       =         1.935917	     110.919882
	 B(8,10,9)        =         1.907170	     109.272799
	 B(8,10,14)       =         1.907771	     109.307219
	 B(9,10,14)       =         1.908431	     109.345019
	 B(10,14,11)      =         1.927845	     110.457358
	 B(10,14,12)      =         1.916202	     109.790294
	 B(10,14,13)      =         1.915382	     109.743288
	 B(11,14,12)      =         1.900828	     108.909410
	 B(11,14,13)      =         1.900829	     108.909495
	 B(12,14,13)      =         1.902439	     109.001738
	 D(1,4,7,5)       =         1.745923	     100.034047
	 D(1,4,7,6)       =        -2.449399	    -140.340197
	 D(1,4,7,10)      =        -0.351528	     -20.141067
	 D(2,4,7,5)       =        -2.445221	    -140.100839
	 D(2,4,7,6)       =        -0.357358	     -20.475083
	 D(2,4,7,10)      =         1.740513	      99.724047
	 D(3,4,7,5)       =        -0.347526	     -19.911793
	 D(3,4,7,6)       =         1.740337	      99.713963
	 D(3,4,7,10)      =        -2.444978	    -140.086907
	 D(4,7,10,8)      =        -1.038952	     -59.527544
	 D(4,7,10,9)      =         1.041086	      59.649821
	 D(4,7,10,14)     =        -3.140578	    -179.941877
	 D(5,7,10,8)      =         3.140522	     179.938671
	 D(5,7,10,9)      =        -1.062626	     -60.883965
	 D(5,7,10,14)     =         1.038896	      59.524337
	 D(6,7,10,8)      =         1.064976	      61.018650
	 D(6,7,10,9)      =        -3.138172	    -179.803985
	 D(6,7,10,14)     =        -1.036650	     -59.395683
	 D(7,10,14,11)    =        -3.141046	    -179.968689
	 D(7,10,14,12)    =         1.045632	      59.910293
	 D(7,10,14,13)    =        -1.045062	     -59.877627
	 D(8,10,14,11)    =         1.043416	      59.783332
	 D(8,10,14,12)    =        -1.053091	     -60.337687
	 D(8,10,14,13)    =         3.139400	     179.874394
	 D(9,10,14,11)    =        -1.043672	     -59.797973
	 D(9,10,14,12)    =        -3.140179	    -179.918991
	 D(9,10,14,13)    =         1.052313	      60.293089

	Current energy   :      -158.1564807229

	Energy change for the previous step:
		Projected    :        -0.0043476420
		Actual       :        -0.0030734240

	Performing BFGS update.
	Previous computed or guess Hessian on step 1.
	Steps to be used in Hessian update: 1
	Adding user-defined constraint: Fragment 1; Coordinate 46:
		Value =    -2.444978; Fixed value    =    -2.443460
		Force =     0.000797; Force constant =     0.525000
	Removing off-diagonal coupling between coordinate 46 and others.
	Taking RFO optimization step.
	Going to follow RFO solution 1.
	Using RFO vector 1.

	Determining step-restricting scale parameter for RS-RFO.
	Maximum step size allowed    0.10000

	 Iter      |step|        alpha        rfo_root  
	------------------------------------------------
	    0     0.18140       1.00000           1
	    1     0.14535       5.26233           1
	    2     0.11722      14.73053           1
	    3     0.10368      23.53481           1
	    4     0.10023      26.54828           1
	    5     0.10000      26.76105           1
	------------------------------------------------
	Norm of target step-size    0.10000
	Projected energy change by RFO approximation:        -0.0018153861

	Back-transformation to cartesian coordinates...
	Successfully converged to displaced geometry.

	--- Internal Coordinate Step in ANG or DEG, aJ/ANG or AJ/DEG ---
	 ---------------------------------------------------------------------------
	   Coordinate                Previous        Force       Change         New 
	   ----------                --------       ------       ------       ------
	    1 R(1,4)          =      1.081272     0.032817     0.006103     1.087375
	    2 R(2,4)          =      1.081255     0.027964     0.005004     1.086260
	    3 R(3,4)          =      1.081040     0.030296     0.005308     1.086348
	    4 R(4,7)          =      1.542880    -0.023679    -0.007713     1.535167
	    5 R(5,7)          =      1.082139     0.034729     0.006360     1.088500
	    6 R(6,7)          =      1.081831     0.035663     0.006532     1.088362
	    7 R(7,10)         =      1.529963    -0.040124    -0.009734     1.520229
	    8 R(8,10)         =      1.082692     0.038424     0.007029     1.089721
	    9 R(9,10)         =      1.082194     0.037329     0.006846     1.089039
	   10 R(10,14)        =      1.532741    -0.039925    -0.010576     1.522165
	   11 R(11,14)        =      1.081948     0.030309     0.005232     1.087180
	   12 R(12,14)        =      1.081499     0.033315     0.006046     1.087545
	   13 R(13,14)        =      1.081650     0.032767     0.005967     1.087617
	   14 B(1,4,2)        =    108.770167    -0.000183    -0.827890   107.942277
	   15 B(1,4,3)        =    108.682206    -0.000191    -0.917434   107.764772
	   16 B(1,4,7)        =    109.860070     0.000114     0.402423   110.262493
	   17 B(2,4,3)        =    108.673241    -0.000185    -0.574089   108.099153
	   18 B(2,4,7)        =    110.254638     0.000203     0.912787   111.167424
	   19 B(3,4,7)        =    110.555512     0.000227     0.909463   111.464975
	   20 B(4,7,5)        =    109.442976     0.000002     0.249794   109.692771
	   21 B(4,7,6)        =    109.442864    -0.000016     0.210749   109.653614
	   22 B(4,7,10)       =    111.038088     0.000294     1.110052   112.148139
	   23 B(5,7,6)        =    109.193491    -0.000092    -1.175836   108.017655
	   24 B(5,7,10)       =    108.837776    -0.000100    -0.316544   108.521233
	   25 B(6,7,10)       =    108.857141    -0.000095    -0.147908   108.709233
	   26 B(7,10,8)       =    109.027206    -0.000069    -0.104315   108.922891
	   27 B(7,10,9)       =    108.945279    -0.000094    -0.248983   108.696296
	   28 B(7,10,14)      =    110.919882     0.000277     1.058917   111.978798
	   29 B(8,10,9)       =    109.272799    -0.000078    -1.083112   108.189687
	   30 B(8,10,14)      =    109.307219    -0.000028     0.137958   109.445177
	   31 B(9,10,14)      =    109.345019    -0.000014     0.182798   109.527817
	   32 B(10,14,11)     =    110.457358     0.000206     0.826757   111.284115
	   33 B(10,14,12)     =    109.790294     0.000126     0.594359   110.384653
	   34 B(10,14,13)     =    109.743288     0.000115     0.556343   110.299631
	   35 B(11,14,12)     =    108.909410    -0.000156    -0.648733   108.260676
	   36 B(11,14,13)     =    108.909495    -0.000152    -0.635372   108.274123
	   37 B(12,14,13)     =    109.001738    -0.000148    -0.756463   108.245275
	   38 D(1,4,7,5)      =    100.034047     0.000006     0.075213   100.109260
	   39 D(1,4,7,6)      =   -140.340197    -0.000021    -1.082371  -141.422568
	   40 D(1,4,7,10)     =    -20.141067    -0.000008    -0.410158   -20.551224
	   41 D(2,4,7,5)      =   -140.100839    -0.000000    -0.114318  -140.215157
	   42 D(2,4,7,6)      =    -20.475083    -0.000028    -1.271903   -21.746986
	   43 D(2,4,7,10)     =     99.724047    -0.000014    -0.599689    99.124358
	   44 D(3,4,7,5)      =    -19.911793     0.000011     0.375420   -19.536372
[...]
  CGR           7          0          1   4.168E-06
  CGR           8          0          1   1.034E-06
  CGR           9          1          0   2.530E-07

    CGRSolver converged.

  ==> DFCorrGrad: Density-Fitted Correlated Gradients <==

    OpenMP threads:              1
    Integrals threads:           1
    Memory (MB):              3576
    Schwarz Cutoff:          0E+00
    Fitting Condition:       1E-12

   => Auxiliary Basis Set <=

  Basis Set: (AUG-CC-PVTZ AUX)
    Blend: AUG-CC-PVTZ-JKFIT
    Number of shells: 260
    Number of basis function: 876
    Number of Cartesian functions: 1074
    Spherical Harmonics?: true
    Max angular momentum: 4

	-----------------------------------------------------------
	 ==================> DF-MP2 Energies <==================== 
	-----------------------------------------------------------
	 Reference Energy          =    -157.3527010497750496 [Eh]
	 Singles Energy            =      -0.0000000000000000 [Eh]
	 Same-Spin Energy          =      -0.1654637802188027 [Eh]
	 Opposite-Spin Energy      =      -0.6397206513120678 [Eh]
	 Correlation Energy        =      -0.8051844315308705 [Eh]
	 Total Energy              =    -158.1578854813059252 [Eh]
	-----------------------------------------------------------
	 ================> DF-SCS-MP2 Energies <================== 
	-----------------------------------------------------------
	 SCS Same-Spin Scale       =       0.3333333333333333 [-]
	 SCS Opposite-Spin Scale   =       1.2000000000000000 [-]
	 SCS Same-Spin Energy      =      -0.0551545934062676 [Eh]
	 SCS Opposite-Spin Energy  =      -0.7676647815744814 [Eh]
	 SCS Correlation Energy    =      -0.8228193749807490 [Eh]
	 SCS Total Energy          =    -158.1755204247558027 [Eh]
	-----------------------------------------------------------


  -Total Gradient:
     Atom            X                  Y                   Z
    ------   -----------------  -----------------  -----------------
       1        0.000012563972     0.000002255135     0.000006265014
       2        0.000011508118     0.000006996787    -0.000003764505
       3        0.000635980839    -0.001649444448    -0.002629289398
       4       -0.000655586393     0.002207951900     0.002450726184
       5       -0.000006249386    -0.000026983992    -0.000013664080
       6       -0.000014442457    -0.000005656162     0.000002261000
       7       -0.000542211120    -0.000852490033     0.002409981444
       8        0.000011587386     0.000023302918     0.000015366042
       9        0.000007367317     0.000008081868    -0.000000752570
      10        0.000506772240     0.000296757176    -0.002238023937
      11       -0.000000831437     0.000006997171    -0.000002787622
      12       -0.000012520823    -0.000005947285    -0.000009507595
      13       -0.000013350879    -0.000007001105     0.000000643320
      14        0.000059412619    -0.000004819931     0.000012546705


*** tstop() called on cpu-6-1.local at Wed Jun 14 15:13:02 2017
Module time:
	user time   =     441.04 seconds =       7.35 minutes
	system time =       4.59 seconds =       0.08 minutes
	total time  =        446 seconds =       7.43 minutes
Total time:
	user time   =    3163.60 seconds =      52.73 minutes
	system time =      38.21 seconds =       0.64 minutes
	total time  =       3221 seconds =      53.68 minutes

			-----------------------------------------
			 OPTKING 2.0: for geometry optimizations 
			  - R.A. King,  Bethel University        
			-----------------------------------------

	Previous internal coordinate definitions found.
	---Fragment 1 Geometry and Gradient---
	 H          -3.8358821610       -0.3192698630       -1.7717557352
	 H          -4.5691873190        1.3122364373        1.0162579421
	 H          -3.8621522121        2.9760391129       -1.7879766359
	 C          -3.3676698837        1.3406805133       -0.6482802700
	 H           0.4848467595        2.5258289898       -1.2500222300
	 H          -0.2831589265        2.1025013880        1.9257672485
	 C          -0.5650908811        1.3132140094        0.0440962170
	 H          -0.4872660572       -2.5760372181        1.1588286516
	 H           0.3705548654       -2.0401970119       -1.9864426773
	 C           0.5834619653       -1.3118455064       -0.0700143762
	 H           4.1497292330       -3.2287269966        0.5585694804
	 H           3.5864412815       -0.6728546798        2.6114919032
	 H           4.4459378120       -0.1054823076       -0.5469665476
	 C           3.3493102823       -1.3398685742        0.6802662582
	             0.0000125640        0.0000022551        0.0000062650
	             0.0000115081        0.0000069968       -0.0000037645
	             0.0006359808       -0.0016494444       -0.0026292894
	            -0.0006555864        0.0022079519        0.0024507262
	            -0.0000062494       -0.0000269840       -0.0000136641
	            -0.0000144425       -0.0000056562        0.0000022610
	            -0.0005422111       -0.0008524900        0.0024099814
	             0.0000115874        0.0000233029        0.0000153660
	             0.0000073673        0.0000080819       -0.0000007526
	             0.0005067722        0.0002967572       -0.0022380239
	            -0.0000008314        0.0000069972       -0.0000027876
	            -0.0000125208       -0.0000059473       -0.0000095076
	            -0.0000133509       -0.0000070011        0.0000006433
	             0.0000594126       -0.0000048199        0.0000125467

	---Fragment 1 Intrafragment Coordinates---
	 - Coordinate -           - BOHR/RAD -       - ANG/DEG -
	 R(1,4)           =         2.058362	       1.089238
	 R(2,4)           =         2.053081	       1.086444
	 R(3,4)           =         2.053733	       1.086789
	 R(4,7)           =         2.886969	       1.527718
	 R(5,7)           =         2.060958	       1.090612
	 R(6,7)           =         2.059890	       1.090047
	 R(7,10)          =         2.867600	       1.517469
	 R(8,10)          =         2.062691	       1.091529
	 R(9,10)          =         2.061195	       1.090737
	 R(10,14)         =         2.865942	       1.516591
	 R(11,14)         =         2.055059	       1.087490
	 R(12,14)         =         2.056884	       1.088456
	 R(13,14)         =         2.057280	       1.088666
	 B(1,4,2)         =         1.873627	     107.350922
	 B(1,4,3)         =         1.859280	     106.528911
	 B(1,4,7)         =         1.922020	     110.123658
	 B(2,4,3)         =         1.896571	     108.665534
	 B(2,4,7)         =         1.953626	     111.934525
	 B(3,4,7)         =         1.954546	     111.987248
	 B(4,7,5)         =         1.915969	     109.776933
	 B(4,7,6)         =         1.926553	     110.383359
	 B(4,7,10)        =         1.969241	     112.829200
	 B(5,7,6)         =         1.852946	     106.165975
	 B(5,7,10)        =         1.885545	     108.033780
	 B(6,7,10)        =         1.909529	     109.407970
	 B(7,10,8)        =         1.906496	     109.234151
	 B(7,10,9)        =         1.895579	     108.608680
	 B(7,10,14)       =         1.966083	     112.648237
	 B(8,10,9)        =         1.858463	     106.482098
	 B(8,10,14)       =         1.916659	     109.816488
	 B(9,10,14)       =         1.917326	     109.854675
	 B(10,14,11)      =         1.949126	     111.676679
	 B(10,14,12)      =         1.932521	     110.725308
	 B(10,14,13)      =         1.930927	     110.633959
	 B(11,14,12)      =         1.884681	     107.984244
	 B(11,14,13)      =         1.884458	     107.971465
	 B(12,14,13)      =         1.879750	     107.701764
	 D(1,4,7,5)       =         1.719876	      98.541613
	 D(1,4,7,6)       =        -2.526600	    -144.763492
	 D(1,4,7,10)      =        -0.384138	     -22.009501
	 D(2,4,7,5)       =        -2.480477	    -142.120857
	 D(2,4,7,6)       =        -0.443767	     -25.425962
	 D(2,4,7,10)      =         1.698695	      97.328029
	 D(3,4,7,5)       =        -0.345555	     -19.798835
	 D(3,4,7,6)       =         1.691155	      96.896060
	 D(3,4,7,10)      =        -2.449569	    -140.349949
	 D(4,7,10,8)      =        -0.982359	     -56.285037
	 D(4,7,10,9)      =         1.037969	      59.471218
	 D(4,7,10,14)     =        -3.117228	    -178.604000
	 D(5,7,10,8)      =        -3.103683	    -177.827928
	 D(5,7,10,9)      =        -1.083355	     -62.071672
	 D(5,7,10,14)     =         1.044634	      59.853110
	 D(6,7,10,8)      =         1.169580	      67.012009
	 D(6,7,10,9)      =        -3.093277	    -177.231735
	 D(6,7,10,14)     =        -0.965288	     -55.306953
	 D(7,10,14,11)    =        -3.125380	    -179.071067
	 D(7,10,14,12)    =         1.056892	      60.555467
	 D(7,10,14,13)    =        -1.025836	     -58.776045
	 D(8,10,14,11)    =         1.028670	      58.938474
	 D(8,10,14,12)    =        -1.072243	     -61.434992
	 D(8,10,14,13)    =         3.128215	     179.233496
	 D(9,10,14,11)    =        -1.009737	     -57.853656
	 D(9,10,14,12)    =        -3.110650	    -178.227122
	 D(9,10,14,13)    =         1.089807	      62.441366

	Current energy   :      -158.1578854813

	Energy change for the previous step:
		Projected    :        -0.0000006216
		Actual       :        -0.0000001088

	Performing BFGS update.
	Previous computed or guess Hessian on step 1.
	Steps to be used in Hessian update: 6 5
	Adding user-defined constraint: Fragment 1; Coordinate 46:
		Value =    -2.449569; Fixed value    =    -2.443460
		Force =     0.003971; Force constant =     0.650000
	Removing off-diagonal coupling between coordinate 46 and others.
	Taking RFO optimization step.
	Going to follow RFO solution 1.
	Rejecting RFO root 1 because normalization gives large value.
	Rejecting RFO root 2 because normalization gives large value.
	Using RFO vector 3.
	Norm of target step-size    0.00358
	Projected energy change by RFO approximation:         0.0000000508

	Back-transformation to cartesian coordinates...
	Successfully converged to displaced geometry.

	--- Internal Coordinate Step in ANG or DEG, aJ/ANG or AJ/DEG ---
	 ---------------------------------------------------------------------------
	   Coordinate                Previous        Force       Change         New 
	   ----------                --------       ------       ------       ------
	    1 R(1,4)          =      1.089238     0.000067     0.000017     1.089255
	    2 R(2,4)          =      1.086444     0.000081     0.000043     1.086487
	    3 R(3,4)          =      1.086789     0.000061     0.000030     1.086818
	    4 R(4,7)          =      1.527718    -0.000357    -0.000170     1.527548
	    5 R(5,7)          =      1.090612     0.000086     0.000031     1.090643
	    6 R(6,7)          =      1.090047     0.000017     0.000032     1.090079
	    7 R(7,10)         =      1.517469    -0.000178    -0.000084     1.517384
	    8 R(8,10)         =      1.091529     0.000092     0.000042     1.091571
	    9 R(9,10)         =      1.090737     0.000024     0.000031     1.090768
	   10 R(10,14)        =      1.516591    -0.000263    -0.000155     1.516436
	   11 R(11,14)        =      1.087490     0.000054     0.000024     1.087515
	   12 R(12,14)        =      1.088456     0.000101     0.000049     1.088505
	   13 R(13,14)        =      1.088666     0.000096     0.000038     1.088704
	   14 B(1,4,2)        =    107.350922    -0.000001    -0.007335   107.343587
	   15 B(1,4,3)        =    106.528911    -0.000003    -0.013683   106.515228
	   16 B(1,4,7)        =    110.123658    -0.000000     0.006898   110.130556
	   17 B(2,4,3)        =    108.665534     0.000002     0.002473   108.668007
	   18 B(2,4,7)        =    111.934525     0.000002     0.013244   111.947769
	   19 B(3,4,7)        =    111.987248    -0.000000    -0.003141   111.984108
	   20 B(4,7,5)        =    109.776933     0.000000     0.010142   109.787074
	   21 B(4,7,6)        =    110.383359    -0.000000    -0.003406   110.379953
	   22 B(4,7,10)       =    112.829200     0.000001     0.013453   112.842652
	   23 B(5,7,6)        =    106.165975    -0.000001    -0.029328   106.136647
	   24 B(5,7,10)       =    108.033780    -0.000002    -0.002535   108.031245
	   25 B(6,7,10)       =    109.407970     0.000001     0.009075   109.417045
	   26 B(7,10,8)       =    109.234151     0.000001     0.004430   109.238581
	   27 B(7,10,9)       =    108.608680     0.000000     0.005244   108.613924
	   28 B(7,10,14)      =    112.648237    -0.000001     0.001099   112.649336
	   29 B(8,10,9)       =    106.482098    -0.000001    -0.025321   106.456777
	   30 B(8,10,14)      =    109.816488     0.000000     0.002935   109.819423
	   31 B(9,10,14)      =    109.854675     0.000001     0.010088   109.864763
	   32 B(10,14,11)     =    111.676679    -0.000000    -0.000485   111.676194
	   33 B(10,14,12)     =    110.725308     0.000001     0.013564   110.738872
	   34 B(10,14,13)     =    110.633959     0.000001     0.007920   110.641879
	   35 B(11,14,12)     =    107.984244    -0.000000    -0.007844   107.976400
	   36 B(11,14,13)     =    107.971465    -0.000000    -0.002944   107.968521
	   37 B(12,14,13)     =    107.701764    -0.000001    -0.011354   107.690410
	   38 D(1,4,7,5)      =     98.541613     0.000000     0.000806    98.542419
	   39 D(1,4,7,6)      =   -144.763492    -0.000000    -0.030893  -144.794385
	   40 D(1,4,7,10)     =    -22.009501     0.000000    -0.012042   -22.021543
	   41 D(2,4,7,5)      =   -142.120857     0.000000     0.004760  -142.116098
	   42 D(2,4,7,6)      =    -25.425962    -0.000000    -0.026940   -25.452902
	   43 D(2,4,7,10)     =     97.328029     0.000000    -0.008089    97.319940
	   44 D(3,4,7,5)      =    -19.798835     0.000001     0.015388   -19.783448
	   45 D(3,4,7,6)      =     96.896060     0.000001    -0.016312    96.879748
	   46 D(3,4,7,10)     =   -140.349949     0.000001     0.002539  -140.347410
	   47 D(4,7,10,8)     =    -56.285037     0.000000     0.017132   -56.267905
	   48 D(4,7,10,9)     =     59.471218    -0.000000    -0.007711    59.463507
	   49 D(4,7,10,14)    =   -178.604000    -0.000000     0.009473  -178.594527
	   50 D(5,7,10,8)     =   -177.827928     0.000000    -0.002505  -177.830433
	   51 D(5,7,10,9)     =    -62.071672    -0.000000    -0.027348   -62.099020
	   52 D(5,7,10,14)    =     59.853110     0.000000    -0.010165    59.842945
	   53 D(6,7,10,8)     =     67.012009     0.000000     0.028804    67.040813
	   54 D(6,7,10,9)     =   -177.231735     0.000000     0.003961  -177.227774
	   55 D(6,7,10,14)    =    -55.306953     0.000000     0.021145   -55.285808
	   56 D(7,10,14,11)   =   -179.071067     0.000000    -0.062757  -179.133824
	   57 D(7,10,14,12)   =     60.555467     0.000000    -0.061739    60.493728
	   58 D(7,10,14,13)   =    -58.776045     0.000000    -0.061422   -58.837467
	   59 D(8,10,14,11)   =     58.938474    -0.000000    -0.071296    58.867178
	   60 D(8,10,14,12)   =    -61.434992    -0.000000    -0.070277   -61.505270
	   61 D(8,10,14,13)   =    179.233496    -0.000000    -0.069961   179.163535
	   62 D(9,10,14,11)   =    -57.853656     0.000000    -0.048188   -57.901844
	   63 D(9,10,14,12)   =   -178.227122     0.000000    -0.047170  -178.274292
	   64 D(9,10,14,13)   =     62.441366     0.000000    -0.046853    62.394513
	 ---------------------------------------------------------------------------
	Successfully symmetrized geometry.
	 Forces used to impose fixed constraints are not included.
	  Forces zeroed: 46 

  ==> Convergence Check <==

  Measures of convergence in internal coordinates in au.
  Criteria marked as inactive (o), active & met (*), and active & unmet ( ).
  ---------------------------------------------------------------------------------------------
   Step     Total Energy     Delta E     MAX Force     RMS Force      MAX Disp      RMS Disp   
  ---------------------------------------------------------------------------------------------
    Convergence Criteria    1.00e-06 *    3.00e-04 *             o    1.20e-03 *             o
  ---------------------------------------------------------------------------------------------
      7    -158.15788548   -1.09e-07 *    5.75e-05 *    1.61e-05 o    1.24e-03      4.47e-04 o  ~
  ---------------------------------------------------------------------------------------------


  **** Optimization is complete! (in 7 steps) ****

  ==> Optimization Summary <==

  Measures of convergence in internal coordinates in au.
  --------------------------------------------------------------------------------------------------------------- ~
   Step         Total Energy             Delta E       MAX Force       RMS Force        MAX Disp        RMS Disp  ~
  --------------------------------------------------------------------------------------------------------------- ~
      1    -158.153407298861   -158.153407298861      0.01328928      0.00564871      0.02682615      0.01250833  ~
      2    -158.156480722898     -0.003073424037      0.00487014      0.00234077      0.03022051      0.01252408  ~
      3    -158.157556759094     -0.001076036196      0.00178402      0.00070005      0.03997774      0.01251830  ~
      4    -158.157840764576     -0.000284005483      0.00096602      0.00021104      0.03734903      0.01188533  ~
      5    -158.157881939947     -0.000041175371      0.00012066      0.00004406      0.00607866      0.00283487  ~
      6    -158.157885372457     -0.000003432510      0.00004873      0.00001829      0.00121688      0.00047916  ~
      7    -158.157885481306     -0.000000108849      0.00007451      0.00001861      0.00124434      0.00044718  ~
  --------------------------------------------------------------------------------------------------------------- ~

	Writing optimization data to binary file.
	Final energy is   -158.1578854813059
	Final (previous) structure:
	Cartesian Geometry (in Angstrom)
	    H    -2.0298614145  -0.1689503349  -0.9375727543
	    H    -2.4179097910   0.6944056149   0.5377805410
	    H    -2.0437629267   1.5748520704  -0.9461564852
	    C    -1.7820941485   0.7094575716  -0.3430551437
	    H     0.2565698548   1.3366111342  -0.6614832743
	    H    -0.1498412503   1.1125958155   1.0190721370
	    C    -0.2990332150   0.6949229237   0.0233347130
	    H    -0.2578500920  -1.3631801843   0.6132257111
	    H     0.1960891893  -1.0796257597  -1.0511801910
	    C     0.3087547741  -0.6941987432  -0.0370500122
	    H     2.1959421319  -1.7085687394   0.2955822384
	    H     1.8978629861  -0.3560593612   1.3819419956
	    H     2.3526889609  -0.0558188331  -0.2894422309
	    C     1.7723786659  -0.7090279120   0.3599813996
	Saving final (previous) structure.
			--------------------------
			 OPTKING Finished Execution 
			--------------------------

    Final optimized geometry and variables:
    Molecular point group: c1
    Full point group: C1

    Geometry (in Angstrom), charge = 0, multiplicity = 1:

    H           -2.029861414461    -0.168950334866    -0.937572754271
    H           -2.417909790976     0.694405614919     0.537780541007
    H           -2.043762926748     1.574852070399    -0.946156485203
    C           -1.782094148507     0.709457571617    -0.343055143658
    H            0.256569854801     1.336611134193    -0.661483274329
    H           -0.149841250327     1.112595815548     1.019072136965
    C           -0.299033215045     0.694922923749     0.023334713025
    H           -0.257850091975    -1.363180184318     0.613225711103
    H            0.196089189296    -1.079625759722    -1.051180190986
    C            0.308754774138    -0.694198743193    -0.037050012155
    H            2.195942131909    -1.708568739373     0.295582238441
    H            1.897862986107    -0.356059361242     1.381941995578
    H            2.352688960931    -0.055818833091    -0.289442230876
    C            1.772378665880    -0.709027911977     0.359981399592

	Cleaning optimization helper files.

*** Psi4 exiting successfully. Buy a developer a beer!
