
    -----------------------------------------------------------------------
          Psi4: An Open-Source Ab Initio Electronic Structure Package
                               Psi4 1.1 release

                         Git: Rev {HEAD} add49b9 


    R. M. Parrish, L. A. Burns, D. G. A. Smith, A. C. Simmonett,
    A. E. DePrince III, E. G. Hohenstein, U. Bozkaya, A. Yu. Sokolov,
    R. Di Remigio, R. M. Richard, J. F. Gonthier, A. M. James,
    H. R. McAlexander, A. Kumar, M. Saitow, X. Wang, B. P. Pritchard,
    P. Verma, H. F. Schaefer III, K. Patkowski, R. A. King, E. F. Valeev,
    F. A. Evangelista, J. M. Turney, T. D. Crawford, and C. D. Sherrill,
    J. Chem. Theory Comput. in press (2017).
    (doi: 10.1021/acs.jctc.7b00174)

    -----------------------------------------------------------------------


    Psi4 started on: Wednesday, 14 June 2017 02:20PM

    Process ID:   4473
    PSIDATADIR: /cbio/jclab/home/chayas/anaconda/envs/py35/share/psi4
    Memory:     500.0 MiB
    Threads:    1
    
  ==> Input File <==

--------------------------------------------------------------------------

memory 5000 mb

molecule butane {
  symmetry C1
  0 1 
  H      1.674   0.529   -8.513
  H      1.661   2.276   -8.559
  H      2.056   1.367   -9.997
  C      2.142   1.395   -8.932
  H      4.169   2.051   -9.210
  H      3.731   1.788   -7.539
  C      3.631   1.416   -8.537
  H      3.665   -0.647   -7.940
  H      4.104   -0.384   -9.610
  C      4.203   -0.012   -8.612
  H      6.088   -0.983   -8.270
  H      5.791   0.381   -7.220
  H      6.230   0.644   -8.890
  C      5.691   0.009   -8.218
  units Angstrom
}

dih_string = "10 7 4 3 280"
set optking fixed_dihedral = $dih_string

optimize('MP2/aug-cc-pvtz')
--------------------------------------------------------------------------

  Memory set to   4.657 GiB by Python driver.
gradient() will perform analytic gradient computation.

*** tstart() called on gpu-2-14.local
*** at Wed Jun 14 14:20:27 2017

    SCF Algorithm Type (re)set to DF.

*** tstart() called on gpu-2-14.local
*** at Wed Jun 14 14:20:27 2017

   => Loading Basis Set <=

    Name: AUG-CC-PVTZ
    Role: ORBITAL
    Keyword: BASIS
    atoms 1-3, 5-6, 8-9, 11-13 entry H          line    34 file /cbio/jclab/home/chayas/anaconda/envs/py35/share/psi4/basis/aug-cc-pvtz.gbs 
    atoms 4, 7, 10, 14         entry C          line   221 file /cbio/jclab/home/chayas/anaconda/envs/py35/share/psi4/basis/aug-cc-pvtz.gbs 


         ---------------------------------------------------------
                                   SCF
            by Justin Turney, Rob Parrish, and Andy Simmonett
                              RHF Reference
                        1 Threads,   4768 MiB Core
         ---------------------------------------------------------

  ==> Geometry <==

    Molecular point group: c1
    Full point group: C1

    Geometry (in Angstrom), charge = 0, multiplicity = 1:

       Center              X                  Y                   Z               Mass       
    ------------   -----------------  -----------------  -----------------  -----------------
           H         -2.242776029323    -0.173034705764     0.061758676441     1.007825032070
           H         -2.255776029323     1.573965294236     0.015758676441     1.007825032070
           H         -1.860776029323     0.664965294236    -1.422241323559     1.007825032070
           C         -1.774776029323     0.692965294236    -0.357241323559    12.000000000000
           H          0.252223970677     1.348965294236    -0.635241323559     1.007825032070
           H         -0.185776029323     1.085965294236     1.035758676441     1.007825032070
           C         -0.285776029323     0.713965294236     0.037758676441    12.000000000000
           H         -0.251776029323    -1.349034705764     0.634758676441     1.007825032070
           H          0.187223970677    -1.086034705764    -1.035241323559     1.007825032070
           C          0.286223970677    -0.714034705764    -0.037241323559    12.000000000000
           H          2.171223970677    -1.685034705764     0.304758676441     1.007825032070
           H          1.874223970677    -0.321034705764     1.354758676441     1.007825032070
           H          2.313223970677    -0.058034705764    -0.315241323559     1.007825032070
           C          1.774223970677    -0.693034705764     0.356758676441    12.000000000000

  Running in c1 symmetry.

  Rotational constants: A =      0.76953  B =      0.12464  C =      0.11638 [cm^-1]
  Rotational constants: A =  23069.96335  B =   3736.65333  C =   3488.83808 [MHz]
  Nuclear repulsion =  131.827740799170357

  Charge       = 0
  Multiplicity = 1
  Electrons    = 34
  Nalpha       = 17
  Nbeta        = 17

  ==> Algorithm <==

  SCF Algorithm Type is DF.
  DIIS enabled.
  MOM disabled.
  Fractional occupation disabled.
  Guess Type is SAD.
  Energy threshold   = 1.00e-10
  Density threshold  = 1.00e-10
  Integral threshold = 0.00e+00

  ==> Primary Basis <==

  Basis Set: AUG-CC-PVTZ
    Blend: AUG-CC-PVTZ
    Number of shells: 146
    Number of basis function: 414
    Number of Cartesian functions: 470
    Spherical Harmonics?: true
    Max angular momentum: 3

   => Loading Basis Set <=

    Name: (AUG-CC-PVTZ AUX)
    Role: JKFIT
    Keyword: DF_BASIS_SCF
    atoms 1-3, 5-6, 8-9, 11-13 entry H          line    69 file /cbio/jclab/home/chayas/anaconda/envs/py35/share/psi4/basis/aug-cc-pvtz-jkfit.gbs 
    atoms 4, 7, 10, 14         entry C          line   161 file /cbio/jclab/home/chayas/anaconda/envs/py35/share/psi4/basis/aug-cc-pvtz-jkfit.gbs 

  ==> Pre-Iterations <==

   -------------------------------------------------------
    Irrep   Nso     Nmo     Nalpha   Nbeta   Ndocc  Nsocc
   -------------------------------------------------------
     A        414     414       0       0       0       0
   -------------------------------------------------------
    Total     414     414      17      17      17       0
   -------------------------------------------------------

  ==> Integral Setup <==

  ==> DFJK: Density-Fitted J/K Matrices <==

    J tasked:                  Yes
    K tasked:                  Yes
    wK tasked:                  No
    OpenMP threads:              1
    Integrals threads:           1
    Memory (MB):              3576
    Algorithm:                Core
    Integral Cache:           NONE
    Schwarz Cutoff:          1E-12
    Fitting Condition:       1E-12

   => Auxiliary Basis Set <=

  Basis Set: (AUG-CC-PVTZ AUX)
    Blend: AUG-CC-PVTZ-JKFIT
    Number of shells: 260
    Number of basis function: 876
    Number of Cartesian functions: 1074
    Spherical Harmonics?: true
    Max angular momentum: 4

  Minimum eigenvalue in the overlap matrix is 8.3478377933E-06.
  Using Symmetric Orthogonalization.

  SCF Guess: Superposition of Atomic Densities via on-the-fly atomic UHF.

  ==> Iterations <==

                           Total Energy        Delta E     RMS |[F,P]|

   @DF-RHF iter   0:  -159.08624102971004   -1.59086e+02   9.62775e-03 
   @DF-RHF iter   1:  -157.26149549607095    1.82475e+00   8.08508e-04 
   @DF-RHF iter   2:  -157.34233701080203   -8.08415e-02   2.33051e-04 DIIS
   @DF-RHF iter   3:  -157.35033183925034   -7.99483e-03   9.02963e-05 DIIS
   @DF-RHF iter   4:  -157.35135269335996   -1.02085e-03   1.97893e-05 DIIS
   @DF-RHF iter   5:  -157.35142409913948   -7.14058e-05   3.80089e-06 DIIS
   @DF-RHF iter   6:  -157.35142747086809   -3.37173e-06   7.25294e-07 DIIS
   @DF-RHF iter   7:  -157.35142757010740   -9.92393e-08   1.67870e-07 DIIS
   @DF-RHF iter   8:  -157.35142757490101   -4.79361e-09   3.94077e-08 DIIS
   @DF-RHF iter   9:  -157.35142757517795   -2.76941e-10   1.09681e-08 DIIS
   @DF-RHF iter  10:  -157.35142757520165   -2.37037e-11   2.44677e-09 DIIS
   @DF-RHF iter  11:  -157.35142757520168   -2.84217e-14   5.02267e-10 DIIS
   @DF-RHF iter  12:  -157.35142757520322   -1.53477e-12   1.48525e-10 DIIS
   @DF-RHF iter  13:  -157.35142757520339   -1.70530e-13   4.34698e-11 DIIS

  ==> Post-Iterations <==

    Orbital Energies (a.u.)
    -----------------------

    Doubly Occupied:                                                      

       1A    -11.207039     2A    -11.206351     3A    -11.198556  
       4A    -11.198275     5A     -1.070694     6A     -0.981142  
       7A     -0.861542     8A     -0.795042     9A     -0.647326  
      10A     -0.587576    11A     -0.575709    12A     -0.570891  
      13A     -0.514036    14A     -0.503635    15A     -0.475263  
      16A     -0.468664    17A     -0.441447  

    Virtual:                                                              

      18A      0.032282    19A      0.037233    20A      0.039543  
      21A      0.040792    22A      0.057057    23A      0.058513  
      24A      0.059791    25A      0.061040    26A      0.081904  
      27A      0.083321    28A      0.098527    29A      0.112475  
      30A      0.123181    31A      0.130715    32A      0.136173  
      33A      0.142053    34A      0.143274    35A      0.146390  
      36A      0.148389    37A      0.159850    38A      0.161407  
      39A      0.167263    40A      0.170863    41A      0.202007  
      42A      0.209120    43A      0.210897    44A      0.229829  
      45A      0.247365    46A      0.249647    47A      0.252613  
      48A      0.269630    49A      0.276784    50A      0.282670  
      51A      0.284374    52A      0.315492    53A      0.318121  
      54A      0.330906    55A      0.337025    56A      0.342366  
      57A      0.351167    58A      0.357650    59A      0.358507  
      60A      0.362633    61A      0.373580    62A      0.374603  
      63A      0.383310    64A      0.386865    65A      0.389912  
      66A      0.391999    67A      0.396832    68A      0.402394  
      69A      0.407437    70A      0.413736    71A      0.422525  
      72A      0.429682    73A      0.443678    74A      0.448974  
      75A      0.455754    76A      0.462088    77A      0.464036  
      78A      0.465217    79A      0.474877    80A      0.481280  
      81A      0.487522    82A      0.493795    83A      0.501484  
      84A      0.504016    85A      0.509195    86A      0.513254  
      87A      0.520277    88A      0.533074    89A      0.533581  
      90A      0.537381    91A      0.545432    92A      0.560168  
      93A      0.567526    94A      0.572958    95A      0.586540  
      96A      0.591703    97A      0.602463    98A      0.611298  
      99A      0.621964   100A      0.631687   101A      0.638883  
     102A      0.660653   103A      0.681052   104A      0.686323  
     105A      0.700883   106A      0.712198   107A      0.762639  
     108A      0.779053   109A      0.797267   110A      0.814683  
     111A      0.822489   112A      0.827726   113A      0.836794  
     114A      0.844782   115A      0.849399   116A      0.860281  
     117A      0.864594   118A      0.867215   119A      0.886282  
     120A      0.892257   121A      0.897135   122A      0.902846  
     123A      0.906528   124A      0.922446   125A      0.926962  
     126A      0.931621   127A      0.937173   128A      0.943349  
     129A      0.944329   130A      0.960593   131A      0.967066  
     132A      0.971427   133A      0.978800   134A      0.986360  
     135A      0.994251   136A      1.015031   137A      1.019748  
     138A      1.034999   139A      1.048964   140A      1.065617  
     141A      1.071899   142A      1.081225   143A      1.093849  
     144A      1.110607   145A      1.114023   146A      1.123844  
     147A      1.130772   148A      1.133631   149A      1.141620  
     150A      1.159120   151A      1.164219   152A      1.166695  
     153A      1.176968   154A      1.193143   155A      1.202092  
     156A      1.219822   157A      1.224195   158A      1.231881  
     159A      1.246387   160A      1.256450   161A      1.260868  
     162A      1.265247   163A      1.273611   164A      1.279848  
     165A      1.296102   166A      1.303989   167A      1.321525  
     168A      1.327695   169A      1.342010   170A      1.352940  
     171A      1.360487   172A      1.388656   173A      1.401058  
     174A      1.424018   175A      1.432374   176A      1.441930  
     177A      1.462295   178A      1.482591   179A      1.499505  
     180A      1.507990   181A      1.522244   182A      1.526516  
     183A      1.551711   184A      1.559311   185A      1.563376  
     186A      1.586516   187A      1.593589   188A      1.616307  
     189A      1.632383   190A      1.645808   191A      1.649852  
     192A      1.652240   193A      1.677541   194A      1.692640  
     195A      1.695405   196A      1.702739   197A      1.711515  
     198A      1.721308   199A      1.733359   200A      1.743585  
     201A      1.745096   202A      1.759566   203A      1.765991  
     204A      1.777976   205A      1.782806   206A      1.795683  
     207A      1.797767   208A      1.809640   209A      1.822007  
     210A      1.846536   211A      1.864531   212A      1.872338  
     213A      1.890452   214A      1.904239   215A      1.915980  
     216A      1.927073   217A      1.961235   218A      1.974999  
     219A      1.986540   220A      1.993175   221A      2.001114  
     222A      2.009088   223A      2.033288   224A      2.043676  
     225A      2.048981   226A      2.066918   227A      2.092408  
     228A      2.102809   229A      2.124300   230A      2.145307  
     231A      2.162676   232A      2.193632   233A      2.196605  
     234A      2.207820   235A      2.243392   236A      2.256162  
     237A      2.264513   238A      2.281123   239A      2.301489  
     240A      2.310162   241A      2.333478   242A      2.335930  
     243A      2.348524   244A      2.359638   245A      2.372296  
     246A      2.375776   247A      2.424731   248A      2.444970  
     249A      2.466791   250A      2.479570   251A      2.506808  
     252A      2.554294   253A      2.603542   254A      2.622473  
     255A      2.640125   256A      2.663190   257A      2.716278  
     258A      2.889439   259A      2.923594   260A      3.009697  
     261A      3.235385   262A      3.249408   263A      3.302789  
     264A      3.371972   265A      3.389742   266A      3.421193  
     267A      3.450786   268A      3.454817   269A      3.471192  
     270A      3.485155   271A      3.525274   272A      3.542982  
     273A      3.572045   274A      3.572427   275A      3.597169  
     276A      3.609465   277A      3.629685   278A      3.664878  
     279A      3.685528   280A      3.694929   281A      3.714866  
     282A      3.719561   283A      3.736948   284A      3.743357  
     285A      3.757401   286A      3.769918   287A      3.779496  
     288A      3.799643   289A      3.810412   290A      3.823957  
     291A      3.846372   292A      3.858456   293A      3.877621  
     294A      3.888927   295A      3.915677   296A      3.928544  
     297A      3.939865   298A      3.950025   299A      3.976801  
     300A      3.997266   301A      4.008320   302A      4.016804  
     303A      4.022793   304A      4.024886   305A      4.049374  
     306A      4.058634   307A      4.072056   308A      4.084770  
     309A      4.124609   310A      4.183238   311A      4.198481  
     312A      4.212201   313A      4.231436   314A      4.240164  
     315A      4.252083   316A      4.277214   317A      4.280613  
     318A      4.290179   319A      4.309883   320A      4.333235  
     321A      4.339502   322A      4.373203   323A      4.381420  
     324A      4.411215   325A      4.427195   326A      4.442919  
     327A      4.526971   328A      4.551845   329A      4.577547  
     330A      4.590331   331A      4.632697   332A      4.666001  
     333A      4.686899   334A      4.698603   335A      4.719012  
     336A      4.736174   337A      4.745898   338A      4.751042  
     339A      4.773686   340A      4.795550   341A      4.808237  
     342A      4.861770   343A      4.869264   344A      4.884320  
     345A      4.890014   346A      4.916414   347A      4.942107  
     348A      4.955235   349A      4.974938   350A      5.006641  
     351A      5.043383   352A      5.069606   353A      5.084040  
     354A      5.094496   355A      5.131143   356A      5.171399  
     357A      5.180912   358A      5.200148   359A      5.207340  
     360A      5.238611   361A      5.254657   362A      5.271136  
     363A      5.276766   364A      5.310786   365A      5.319096  
     366A      5.339682   367A      5.391175   368A      5.413625  
     369A      5.439401   370A      5.449989   371A      5.458644  
     372A      5.468417   373A      5.499288   374A      5.519133  
     375A      5.584282   376A      5.603164   377A      5.625084  
     378A      5.643934   379A      5.680411   380A      5.684563  
     381A      5.698058   382A      5.757861   383A      5.777639  
     384A      5.791317   385A      5.820700   386A      5.861246  
     387A      5.905874   388A      5.920530   389A      5.958357  
     390A      6.025112   391A      6.120676   392A      6.157299  
     393A      6.174552   394A      6.190980   395A      6.246322  
     396A      6.265421   397A      6.272036   398A      6.315325  
     399A      6.317913   400A      6.358042   401A      6.407658  
     402A      6.437752   403A      6.556995   404A      6.569983  
     405A      6.747900   406A      6.784429   407A      6.830742  
     408A      6.849835   409A      6.857668   410A      6.984122  
     411A     18.073341   412A     18.380995   413A     18.668890  
     414A     18.952980  

    Final Occupation by Irrep:
              A 
    DOCC [    17 ]

  Energy converged.

  @DF-RHF Final Energy:  -157.35142757520339

   => Energetics <=

    Nuclear Repulsion Energy =            131.8277407991703569
    One-Electron Energy =                -471.7519593930715018
    Two-Electron Energy =                 182.5727910186977851
    DFT Exchange-Correlation Energy =       0.0000000000000000
    Empirical Dispersion Energy =           0.0000000000000000
    PCM Polarization Energy =               0.0000000000000000
    EFP Energy =                            0.0000000000000000
    Total Energy =                       -157.3514275752033882



Properties will be evaluated at   0.000000,   0.000000,   0.000000 Bohr

Properties computed using the SCF density matrix

  Nuclear Dipole Moment: (a.u.)
     X:     0.0012      Y:     0.0015      Z:    -0.0004

  Electronic Dipole Moment: (a.u.)
     X:    -0.0004      Y:    -0.0018      Z:    -0.0014

  Dipole Moment: (a.u.)
     X:     0.0008      Y:    -0.0003      Z:    -0.0018     Total:     0.0019

  Dipole Moment: (Debye)
     X:     0.0019      Y:    -0.0007      Z:    -0.0045     Total:     0.0049


*** tstop() called on gpu-2-14.local at Wed Jun 14 14:22:41 2017
Module time:
	user time   =     114.36 seconds =       1.91 minutes
	system time =       0.71 seconds =       0.01 minutes
	total time  =        134 seconds =       2.23 minutes
Total time:
	user time   =     114.37 seconds =       1.91 minutes
	system time =       0.71 seconds =       0.01 minutes
	total time  =        134 seconds =       2.23 minutes

  //>>>>>>>>>>>>>>>>>>>>>>>>>>>>>>>>>>>//
  //               DFMP2               //
  //<<<<<<<<<<<<<<<<<<<<<<<<<<<<<<<<<<<//

   => Loading Basis Set <=

    Name: (AUG-CC-PVTZ AUX)
    Role: RIFIT
    Keyword: DF_BASIS_MP2
    atoms 1-3, 5-6, 8-9, 11-13 entry H          line    29 file /cbio/jclab/home/chayas/anaconda/envs/py35/share/psi4/basis/aug-cc-pvtz-ri.gbs 
    atoms 4, 7, 10, 14         entry C          line   147 file /cbio/jclab/home/chayas/anaconda/envs/py35/share/psi4/basis/aug-cc-pvtz-ri.gbs 

	 --------------------------------------------------------
	                          DF-MP2                         
	      2nd-Order Density-Fitted Moller-Plesset Theory     
	              RMP2 Wavefunction,   1 Threads             
	                                                         
	        Rob Parrish, Justin Turney, Andy Simmonett,      
	           Ed Hohenstein, and C. David Sherrill          
	 --------------------------------------------------------

   => Auxiliary Basis Set <=

  Basis Set: (AUG-CC-PVTZ AUX)
    Blend: AUG-CC-PVTZ-RI
    Number of shells: 252
    Number of basis function: 884
    Number of Cartesian functions: 1094
    Spherical Harmonics?: true
    Max angular momentum: 4

	 --------------------------------------------------------
	                 NBF =   414, NAUX =   884
	 --------------------------------------------------------
	   CLASS    FOCC     OCC    AOCC    AVIR     VIR    FVIR
	   PAIRS       0      17      17     397     397       0
	 --------------------------------------------------------


         ------------------------------------------------------------
                                     CPHF                           
                                  Rob Parrish                       
         ------------------------------------------------------------

  ==> Geometry <==

    Molecular point group: c1
    Full point group: C1

    Geometry (in Angstrom), charge = 0, multiplicity = 1:

       Center              X                  Y                   Z               Mass       
    ------------   -----------------  -----------------  -----------------  -----------------
           H         -2.242776029323    -0.173034705764     0.061758676441     1.007825032070
           H         -2.255776029323     1.573965294236     0.015758676441     1.007825032070
           H         -1.860776029323     0.664965294236    -1.422241323559     1.007825032070
           C         -1.774776029323     0.692965294236    -0.357241323559    12.000000000000
           H          0.252223970677     1.348965294236    -0.635241323559     1.007825032070
           H         -0.185776029323     1.085965294236     1.035758676441     1.007825032070
           C         -0.285776029323     0.713965294236     0.037758676441    12.000000000000
           H         -0.251776029323    -1.349034705764     0.634758676441     1.007825032070
           H          0.187223970677    -1.086034705764    -1.035241323559     1.007825032070
           C          0.286223970677    -0.714034705764    -0.037241323559    12.000000000000
           H          2.171223970677    -1.685034705764     0.304758676441     1.007825032070
           H          1.874223970677    -0.321034705764     1.354758676441     1.007825032070
           H          2.313223970677    -0.058034705764    -0.315241323559     1.007825032070
           C          1.774223970677    -0.693034705764     0.356758676441    12.000000000000

  Nuclear repulsion =  131.827740799170357
  Reference energy  = -157.351427575203388

  ==> Basis Set <==

  Basis Set: AUG-CC-PVTZ
    Blend: AUG-CC-PVTZ
    Number of shells: 146
    Number of basis function: 414
    Number of Cartesian functions: 470
    Spherical Harmonics?: true
    Max angular momentum: 3

  ==> CGRSolver (by Rob Parrish) <==

   Number of roots    =         1
   Preconditioning    =    JACOBI
   Convergence cutoff =     1E-06
   Maximum iterations =       100

  ==> CPHFRHamiltonian (by Rob Parrish) <== 

  ==> DFJK: Density-Fitted J/K Matrices <==

    J tasked:                  Yes
    K tasked:                  Yes
    wK tasked:                  No
    OpenMP threads:              1
    Integrals threads:           1
    Memory (MB):              3576
    Algorithm:                Core
    Integral Cache:           NONE
    Schwarz Cutoff:          1E-12
    Fitting Condition:       1E-12

   => Auxiliary Basis Set <=

  Basis Set: (AUG-CC-PVTZ AUX)
    Blend: AUG-CC-PVTZ-JKFIT
    Number of shells: 260
    Number of basis function: 876
    Number of Cartesian functions: 1074
    Spherical Harmonics?: true
    Max angular momentum: 4

  ==> CPHF Iterations <==

  => Iterations <=

             Iter  Converged  Remaining    Residual
  CGR           1          0          1   8.159E-02
  CGR           2          0          1   1.305E-02
  CGR           3          0          1   3.413E-03
  CGR           4          0          1   8.051E-04
  CGR           5          0          1   1.184E-04
  CGR           6          0          1   2.127E-05
  CGR           7          0          1   3.742E-06
  CGR           8          1          0   8.313E-07

    CGRSolver converged.

  ==> DFCorrGrad: Density-Fitted Correlated Gradients <==

    OpenMP threads:              1
    Integrals threads:           1
    Memory (MB):              3576
    Schwarz Cutoff:          0E+00
    Fitting Condition:       1E-12

   => Auxiliary Basis Set <=

  Basis Set: (AUG-CC-PVTZ AUX)
    Blend: AUG-CC-PVTZ-JKFIT
    Number of shells: 260
    Number of basis function: 876
    Number of Cartesian functions: 1074
    Spherical Harmonics?: true
    Max angular momentum: 4

	-----------------------------------------------------------
	 ==================> DF-MP2 Energies <==================== 
	-----------------------------------------------------------
	 Reference Energy          =    -157.3514275752033882 [Eh]
	 Singles Energy            =      -0.0000000000000000 [Eh]
	 Same-Spin Energy          =      -0.1653999442607551 [Eh]
	 Opposite-Spin Energy      =      -0.6388810368501097 [Eh]
	 Correlation Energy        =      -0.8042809811108648 [Eh]
	 Total Energy              =    -158.1557085563142664 [Eh]
	-----------------------------------------------------------
	 ================> DF-SCS-MP2 Energies <================== 
	-----------------------------------------------------------
	 SCS Same-Spin Scale       =       0.3333333333333333 [-]
	 SCS Opposite-Spin Scale   =       1.2000000000000000 [-]
	 SCS Same-Spin Energy      =      -0.0551333147535850 [Eh]
	 SCS Opposite-Spin Energy  =      -0.7666572442201316 [Eh]
	 SCS Correlation Energy    =      -0.8217905589737167 [Eh]
	 SCS Total Energy          =    -158.1732181341770911 [Eh]
	-----------------------------------------------------------


  -Total Gradient:
     Atom            X                  Y                   Z
    ------   -----------------  -----------------  -----------------
       1        0.007485975632     0.008432952859    -0.004271431095
       2        0.008817280806    -0.008486683776    -0.001248966665
       3        0.003874046297     0.001505310555     0.011998973370
       4       -0.023519219794    -0.006911452412    -0.007966578614
       5       -0.007907355281    -0.008584581481     0.005204799341
       6       -0.003546054798    -0.004781950994    -0.011569177707
       7        0.020752086952     0.030912327729     0.009872162563
       8        0.007948367280     0.008070873606    -0.006451183954
       9        0.003454068561     0.005856602199     0.011711209813
      10       -0.022604381314    -0.031545561239    -0.009756349826
      11       -0.008416961253     0.010012903576    -0.000643940067
      12       -0.003175310031    -0.004034665402    -0.010997599078
      13       -0.007682298501    -0.006542565546     0.006175471408
      14        0.024519755443     0.006096490324     0.007942610514


*** tstop() called on gpu-2-14.local at Wed Jun 14 14:31:12 2017
Module time:
	user time   =     559.23 seconds =       9.32 minutes
	system time =       4.89 seconds =       0.08 minutes
	total time  =        645 seconds =      10.75 minutes
Total time:
	user time   =     559.24 seconds =       9.32 minutes
	system time =       4.89 seconds =       0.08 minutes
	total time  =        645 seconds =      10.75 minutes

			-----------------------------------------
			 OPTKING 2.0: for geometry optimizations 
			  - R.A. King,  Bethel University        
			-----------------------------------------

	Internal coordinates to be generated automatically.
	Detected frag 1 with atoms:  1 2 3 4 5 6 7 8 9 10 11 12 13 14
	---Fragment 1 Bond Connectivity---
	 1 : 4
	 2 : 4
	 3 : 4
	 4 : 1 2 3 7
	 5 : 7
	 6 : 7
	 7 : 4 5 6 10
	 8 : 10
	 9 : 10
	 10 : 7 8 9 14
	 11 : 14
	 12 : 14
	 13 : 14
	 14 : 10 11 12 13

	Assuming in current code that numbering for constraints corresponds to unified fragment.
	Fixed dihedral atom list: 
	    10     7     4     3
	---Fragment 1 Geometry and Gradient---
	 H          -4.2382324728       -0.3269882054        0.1167069848
	 H          -4.2627989125        2.9743633488        0.0297795827
	 H          -3.5163570901        1.2566022940       -2.6876465964
	 C          -3.3538406426        1.3095146257       -0.6750882649
	 H           0.4766342287        2.5491749689       -1.2004321298
	 H          -0.3510658175        2.0521769959        1.9573002382
	 C          -0.5400384308        1.3491988745        0.0713535576
	 H          -0.4757877422       -2.5493061377        1.1995200589
	 H           0.3538020301       -2.0523081647       -1.9563225830
	 C           0.5408849172       -1.3493300433       -0.0703759024
	 H           4.1030186777       -3.1842541183        0.5759104351
	 H           3.5417700163       -0.6066676730        2.5601228746
	 H           4.3713597886       -0.1096697001       -0.5957197673
	 C           3.3527974030       -1.3096457945        0.6741761940
	             0.0074859756        0.0084329529       -0.0042714311
	             0.0088172808       -0.0084866838       -0.0012489667
	             0.0038740463        0.0015053106        0.0119989734
	            -0.0235192198       -0.0069114524       -0.0079665786
	            -0.0079073553       -0.0085845815        0.0052047993
	            -0.0035460548       -0.0047819510       -0.0115691777
	             0.0207520870        0.0309123277        0.0098721626
	             0.0079483673        0.0080708736       -0.0064511840
	             0.0034540686        0.0058566022        0.0117112098
	            -0.0226043813       -0.0315455612       -0.0097563498
	            -0.0084169613        0.0100129036       -0.0006439401
	            -0.0031753100       -0.0040346654       -0.0109975991
	            -0.0076822985       -0.0065425655        0.0061754714
	             0.0245197554        0.0060964903        0.0079426105

	Previous optimization step data not found.  Starting new optimization.

	---Fragment 1 Intrafragment Coordinates---
	 - Coordinate -           - BOHR/RAD -       - ANG/DEG -
	 R(1,4)           =         2.021690	       1.069832
	 R(2,4)           =         2.023553	       1.070818
	 R(3,4)           =         2.019803	       1.068833
	 R(4,7)           =         2.911397	       1.540645
	 R(5,7)           =         2.022623	       1.070326
	 R(6,7)           =         2.021555	       1.069761
	 R(7,10)          =         2.910419	       1.540128
	 R(8,10)          =         2.021436	       1.069698
	 R(9,10)          =         2.021379	       1.069668
	 R(10,14)         =         2.909087	       1.539422
	 R(11,14)         =         2.021545	       1.069756
	 R(12,14)         =         2.021555	       1.069761
	 R(13,14)         =         2.022387	       1.070201
	 B(1,4,2)         =         1.910342	     109.454555
	 B(1,4,3)         =         1.911173	     109.502128
	 B(1,4,7)         =         1.910712	     109.475735
	 B(2,4,3)         =         1.909742	     109.420166
	 B(2,4,7)         =         1.910927	     109.488028
	 B(3,4,7)         =         1.910903	     109.486698
	 B(4,7,5)         =         1.909937	     109.431343
	 B(4,7,6)         =         1.911630	     109.528316
	 B(4,7,10)        =         1.911154	     109.501062
	 B(5,7,6)         =         1.910605	     109.469614
	 B(5,7,10)        =         1.910047	     109.437654
	 B(6,7,10)        =         1.910425	     109.459295
	 B(7,10,8)        =         1.910303	     109.452301
	 B(7,10,9)        =         1.910824	     109.482155
	 B(7,10,14)       =         1.911213	     109.504437
	 B(8,10,9)        =         1.910417	     109.458846
	 B(8,10,14)       =         1.910766	     109.478806
	 B(9,10,14)       =         1.910276	     109.450772
	 B(10,14,11)      =         1.910943	     109.488965
	 B(10,14,12)      =         1.911204	     109.503926
	 B(10,14,13)      =         1.911557	     109.524173
	 B(11,14,12)      =         1.910410	     109.458432
	 B(11,14,13)      =         1.910054	     109.438058
	 B(12,14,13)      =         1.909629	     109.413709
	 D(1,4,7,5)       =         2.792551	     160.001411
	 D(1,4,7,6)       =        -1.396090	     -79.990037
	 D(1,4,7,10)      =         0.698981	      40.048671
	 D(2,4,7,5)       =        -1.396367	     -80.005942
	 D(2,4,7,6)       =         0.698177	      40.002610
	 D(2,4,7,10)      =         2.793248	     160.041318
	 D(3,4,7,5)       =         0.697282	      39.951297
	 D(3,4,7,6)       =         2.791826	     159.959849
	 D(3,4,7,10)      =        -1.396289	     -80.001443
	 D(4,7,10,8)      =        -1.047368	     -60.009777
	 D(4,7,10,9)      =         1.046677	      59.970178
	 D(4,7,10,14)     =         3.141107	     179.972182
	 D(5,7,10,8)      =        -3.140871	    -179.958653
	 D(5,7,10,9)      =        -1.046826	     -59.978698
	 D(5,7,10,14)     =         1.047604	      60.023306
	 D(6,7,10,8)      =         1.048439	      60.071149
	 D(6,7,10,9)      =        -3.140701	    -179.948896
	 D(6,7,10,14)     =        -1.046271	     -59.946893
	 D(7,10,14,11)    =         3.141408	     179.989448
	 D(7,10,14,12)    =         1.046747	      59.974196
	 D(7,10,14,13)    =        -1.047335	     -60.007849
	 D(8,10,14,11)    =         1.046982	      59.987626
	 D(8,10,14,12)    =        -1.047680	     -60.027626
	 D(8,10,14,13)    =         3.141424	     179.990329
	 D(9,10,14,11)    =        -1.047012	     -59.989345
	 D(9,10,14,12)    =         3.141512	     179.995403
	 D(9,10,14,13)    =         1.047431	      60.013359

	Current energy   :      -158.1557085563

	Generating empirical Hessian (Schlegel '84) for each fragment.
	Adding user-defined constraint: Fragment 1; Coordinate 46:
		Value =    -1.396289; Fixed value    =    -1.396263
		Force =     0.000013; Force constant =     0.500000
	Removing off-diagonal coupling between coordinate 46 and others.
	Taking RFO optimization step.
	Going to follow RFO solution 1.
	Using RFO vector 1.

	Determining step-restricting scale parameter for RS-RFO.
	Maximum step size allowed    0.10000

	 Iter      |step|        alpha        rfo_root  
	------------------------------------------------
	    0     0.19498       1.00000           1
	    1     0.15409       5.48514           1
	    2     0.12275      16.25680           1
	    3     0.10594      28.78032           1
	    4     0.10056      34.63661           1
	    5     0.10001      35.30941           1
	------------------------------------------------
	Norm of target step-size    0.10001
	Projected energy change by RFO approximation:        -0.0047163512

	Back-transformation to cartesian coordinates...
	Could not converge backtransformation.
	Using first guess instead.

	--- Internal Coordinate Step in ANG or DEG, aJ/ANG or AJ/DEG ---
	 ---------------------------------------------------------------------------
	   Coordinate                Previous        Force       Change         New 
	   ----------                --------       ------       ------       ------
	    1 R(1,4)          =      1.069832     0.097002     0.011962     1.081795
	    2 R(2,4)          =      1.070818     0.093740     0.011523     1.082340
	    3 R(3,4)          =      1.068833     0.101395     0.012407     1.081241
	    4 R(4,7)          =      1.540645    -0.030366    -0.004381     1.536264
	    5 R(5,7)          =      1.070326     0.101669     0.012443     1.082769
	    6 R(6,7)          =      1.069761     0.105352     0.012874     1.082635
	    7 R(7,10)         =      1.540128    -0.074907    -0.010795     1.529333
	    8 R(8,10)         =      1.069698     0.105797     0.012924     1.082622
	    9 R(9,10)         =      1.069668     0.109435     0.013369     1.083036
	   10 R(10,14)        =      1.539422    -0.047614    -0.006906     1.532516
	   11 R(11,14)        =      1.069756     0.101974     0.012497     1.082253
	   12 R(12,14)        =      1.069761     0.098533     0.012084     1.081845
	   13 R(13,14)        =      1.070201     0.095807     0.011762     1.081963
	   14 B(1,4,2)        =    109.454555    -0.000266    -0.622570   108.831986
	   15 B(1,4,3)        =    109.502128    -0.000199    -0.462136   109.039992
	   16 B(1,4,7)        =    109.475735     0.000148     0.364155   109.839890
	   17 B(2,4,3)        =    109.420166    -0.000299    -0.751073   108.669093
	   18 B(2,4,7)        =    109.488028     0.000418     0.992469   110.480497
	   19 B(3,4,7)        =    109.486698     0.000197     0.458751   109.945449
	   20 B(4,7,5)        =    109.431343    -0.000119    -0.132605   109.298738
	   21 B(4,7,6)        =    109.528316    -0.000105    -0.091996   109.436320
	   22 B(4,7,10)       =    109.501062     0.000669     1.445456   110.946518
	   23 B(5,7,6)        =    109.469614     0.000006    -0.259719   109.209895
	   24 B(5,7,10)       =    109.437654    -0.000228    -0.458535   108.979119
	   25 B(6,7,10)       =    109.459295    -0.000223    -0.514531   108.944764
	   26 B(7,10,8)       =    109.452301    -0.000226    -0.493063   108.959237
	   27 B(7,10,9)       =    109.482155    -0.000198    -0.407433   109.074722
	   28 B(7,10,14)      =    109.504437     0.000649     1.399500   110.903937
	   29 B(8,10,9)       =    109.458846     0.000014    -0.223050   109.235796
	   30 B(8,10,14)      =    109.478806    -0.000112    -0.124208   109.354598
	   31 B(9,10,14)      =    109.450772    -0.000127    -0.162070   109.288702
	   32 B(10,14,11)     =    109.488965     0.000413     1.009112   110.498077
	   33 B(10,14,12)     =    109.503926     0.000113     0.254369   109.758295
	   34 B(10,14,13)     =    109.524173     0.000128     0.291574   109.815747
	   35 B(11,14,12)     =    109.458432    -0.000243    -0.563553   108.894879
	   36 B(11,14,13)     =    109.438058    -0.000248    -0.571254   108.866805
	   37 B(12,14,13)     =    109.413709    -0.000165    -0.437555   108.976154
	   38 D(1,4,7,5)      =    160.001411     0.000019     0.329133   160.330544
	   39 D(1,4,7,6)      =    -79.990037    -0.000011    -0.124933   -80.114970
	   40 D(1,4,7,10)     =     40.048671     0.000006     0.082339    40.131010
	   41 D(2,4,7,5)      =    -80.005942     0.000024     0.407829   -79.598113
	   42 D(2,4,7,6)      =     40.002610    -0.000006    -0.046237    39.956373
	   43 D(2,4,7,10)     =    160.041318     0.000011     0.161035   160.202353
	   44 D(3,4,7,5)      =     39.951297     0.000026     0.387317    40.338614
	   45 D(3,4,7,6)      =    159.959849    -0.000003    -0.066749   159.893100
	   46 D(3,4,7,10)     =    -80.001443     0.000013     0.140523   -79.860920
	   47 D(4,7,10,8)     =    -60.009777     0.000024     0.351191   -59.658586
	   48 D(4,7,10,9)     =     59.970178    -0.000032    -0.460108    59.510070
	   49 D(4,7,10,14)    =    179.972182    -0.000004    -0.050005   179.922177
	   50 D(5,7,10,8)     =   -179.958653    -0.000004    -0.089329  -180.047982
	   51 D(5,7,10,9)     =    -59.978698    -0.000060    -0.900628   -60.879326
	   52 D(5,7,10,14)    =     60.023306    -0.000032    -0.490525    59.532781
	   53 D(6,7,10,8)     =     60.071149     0.000057     0.807952    60.879101
	   54 D(6,7,10,9)     =   -179.948896     0.000002    -0.003347  -179.952243
	   55 D(6,7,10,14)    =    -59.946893     0.000029     0.406757   -59.540136
	   56 D(7,10,14,11)   =    179.989448    -0.000002    -0.034525   179.954923
	   57 D(7,10,14,12)   =     59.974196    -0.000008    -0.127521    59.846675
	   58 D(7,10,14,13)   =    -60.007849     0.000004     0.072995   -59.934854
	   59 D(8,10,14,11)   =     59.987626    -0.000014    -0.216916    59.770710
	   60 D(8,10,14,12)   =    -60.027626    -0.000020    -0.309912   -60.337539
	   61 D(8,10,14,13)   =    179.990329    -0.000008    -0.109397   179.880932
	   62 D(9,10,14,11)   =    -59.989345     0.000015     0.229235   -59.760110
	   63 D(9,10,14,12)   =    179.995403     0.000010     0.136239   180.131642
	   64 D(9,10,14,13)   =     60.013359     0.000022     0.336754    60.350113
	 ---------------------------------------------------------------------------
	Successfully symmetrized geometry.
	 Forces used to impose fixed constraints are not included.
	  Forces zeroed: 46 

  ==> Convergence Check <==

  Measures of convergence in internal coordinates in au.
  Criteria marked as inactive (o), active & met (*), and active & unmet ( ).
  --------------------------------------------------------------------------------------------- ~
   Step     Total Energy     Delta E     MAX Force     RMS Force      MAX Disp      RMS Disp    ~
  --------------------------------------------------------------------------------------------- ~
    Convergence Criteria    1.00e-06 *    3.00e-04 *             o    1.20e-03 *             o  ~
  --------------------------------------------------------------------------------------------- ~
      1    -158.15570856   -1.58e+02      1.33e-02      5.61e-03 o    2.53e-02      1.25e-02 o  ~
  ---------------------------------------------------------------------------------------------

	Writing optimization data to binary file.
	Structure for next step:
	Cartesian Geometry (in Angstrom)
	    H    -2.2660232264  -0.1717244575   0.0627104545
	    H    -2.2720425368   1.5875824176   0.0132801545
	    H    -1.8760430909   0.6715530840  -1.4337268120
	    C    -1.7789333078   0.6981668565  -0.3571846788
	    H     0.2529514905   1.3475893498  -0.6429947714
	    H    -0.1891654055   1.0801994469   1.0448821967
	    C    -0.2935916257   0.7041870977   0.0350264933
	    H    -0.2504906562  -1.3482426491   0.6453163736
	    H     0.1930276087  -1.0833395731  -1.0430980957
	    C     0.2956486575  -0.7054158207  -0.0333404373
	    H     2.1877717238  -1.6983481605   0.3063868807
	    H     1.8888947608  -0.3237083539   1.3651609599
	    H     2.3313243600  -0.0589949527  -0.3190179217
	    C     1.7778068375  -0.6979901655   0.3562206738
			--------------------------
			 OPTKING Finished Execution 
			--------------------------

    Structure for next step:
    Molecular point group: c1
    Full point group: C1

    Geometry (in Angstrom), charge = 0, multiplicity = 1:

    H           -2.266219054772    -0.171551619049     0.062580364176
    H           -2.272238365235     1.587755256052     0.013150064181
    H           -1.876238919289     0.671725922448    -1.433856902318
    C           -1.779129136182     0.698339694884    -0.357314769156
    H            0.252755662128     1.347762188212    -0.643124861722
    H           -0.189361233861     1.080372285288     1.044752106403
    C           -0.293787454112     0.704359936082     0.034896402968
    H           -0.250686484622    -1.348069810672     0.645186283302
    H            0.192831780304    -1.083166734680    -1.043228186069
    C            0.295452829111    -0.705242982278    -0.033470527664
    H            2.187575895377    -1.698175322096     0.306256790411
    H            1.888698932430    -0.323535515492     1.365030869545
    H            2.331128531642    -0.058822114284    -0.319148012048
    C            1.777611009114    -0.697817327071     0.356090583505

gradient() will perform analytic gradient computation.

*** tstart() called on gpu-2-14.local
*** at Wed Jun 14 14:31:12 2017

    SCF Algorithm Type (re)set to DF.

*** tstart() called on gpu-2-14.local
*** at Wed Jun 14 14:31:12 2017

   => Loading Basis Set <=

    Name: AUG-CC-PVTZ
    Role: ORBITAL
    Keyword: BASIS
    atoms 1-3, 5-6, 8-9, 11-13 entry H          line    34 file /cbio/jclab/home/chayas/anaconda/envs/py35/share/psi4/basis/aug-cc-pvtz.gbs 
    atoms 4, 7, 10, 14         entry C          line   221 file /cbio/jclab/home/chayas/anaconda/envs/py35/share/psi4/basis/aug-cc-pvtz.gbs 


         ---------------------------------------------------------
                                   SCF
            by Justin Turney, Rob Parrish, and Andy Simmonett
                              RHF Reference
                        1 Threads,   4768 MiB Core
         ---------------------------------------------------------

  ==> Geometry <==

    Molecular point group: c1
    Full point group: C1

    Geometry (in Angstrom), charge = 0, multiplicity = 1:

       Center              X                  Y                   Z               Mass       
    ------------   -----------------  -----------------  -----------------  -----------------
           H         -2.266219054772    -0.171551619049     0.062580364176     1.007825032070
           H         -2.272238365235     1.587755256052     0.013150064181     1.007825032070
           H         -1.876238919289     0.671725922448    -1.433856902318     1.007825032070
           C         -1.779129136182     0.698339694884    -0.357314769156    12.000000000000
           H          0.252755662128     1.347762188212    -0.643124861722     1.007825032070
           H         -0.189361233861     1.080372285288     1.044752106403     1.007825032070
           C         -0.293787454112     0.704359936082     0.034896402968    12.000000000000
           H         -0.250686484622    -1.348069810672     0.645186283302     1.007825032070
           H          0.192831780304    -1.083166734680    -1.043228186069     1.007825032070
           C          0.295452829111    -0.705242982278    -0.033470527664    12.000000000000
           H          2.187575895377    -1.698175322096     0.306256790411     1.007825032070
           H          1.888698932430    -0.323535515492     1.365030869545     1.007825032070
           H          2.331128531642    -0.058822114284    -0.319148012048     1.007825032070
           C          1.777611009114    -0.697817327071     0.356090583505    12.000000000000

  Running in c1 symmetry.

  Rotational constants: A =      0.77676  B =      0.12348  C =      0.11571 [cm^-1]
  Rotational constants: A =  23286.76905  B =   3701.94242  C =   3468.90592 [MHz]
  Nuclear repulsion =  131.414591050000723

  Charge       = 0
  Multiplicity = 1
  Electrons    = 34
  Nalpha       = 17
  Nbeta        = 17

  ==> Algorithm <==

  SCF Algorithm Type is DF.
  DIIS enabled.
  MOM disabled.
  Fractional occupation disabled.
  Guess Type is READ.
  Energy threshold   = 1.00e-10
  Density threshold  = 1.00e-10
  Integral threshold = 0.00e+00

  ==> Primary Basis <==

  Basis Set: AUG-CC-PVTZ
    Blend: AUG-CC-PVTZ
    Number of shells: 146
    Number of basis function: 414
    Number of Cartesian functions: 470
    Spherical Harmonics?: true
    Max angular momentum: 3

   => Loading Basis Set <=

    Name: (AUG-CC-PVTZ AUX)
    Role: JKFIT
    Keyword: DF_BASIS_SCF
    atoms 1-3, 5-6, 8-9, 11-13 entry H          line    69 file /cbio/jclab/home/chayas/anaconda/envs/py35/share/psi4/basis/aug-cc-pvtz-jkfit.gbs 
    atoms 4, 7, 10, 14         entry C          line   161 file /cbio/jclab/home/chayas/anaconda/envs/py35/share/psi4/basis/aug-cc-pvtz-jkfit.gbs 

  Reading orbitals from file 180, no projection.

  ==> Pre-Iterations <==

   -------------------------------------------------------
    Irrep   Nso     Nmo     Nalpha   Nbeta   Ndocc  Nsocc
   -------------------------------------------------------
     A        414     414       0       0       0       0
   -------------------------------------------------------
    Total     414     414      17      17      17       0
   -------------------------------------------------------

  ==> Integral Setup <==

  ==> DFJK: Density-Fitted J/K Matrices <==

    J tasked:                  Yes
    K tasked:                  Yes
    wK tasked:                  No
    OpenMP threads:              1
    Integrals threads:           1
    Memory (MB):              3576
    Algorithm:                Core
    Integral Cache:           NONE
    Schwarz Cutoff:          1E-12
    Fitting Condition:       1E-12

   => Auxiliary Basis Set <=

  Basis Set: (AUG-CC-PVTZ AUX)
    Blend: AUG-CC-PVTZ-JKFIT
    Number of shells: 260
    Number of basis function: 876
    Number of Cartesian functions: 1074
    Spherical Harmonics?: true
    Max angular momentum: 4

  Minimum eigenvalue in the overlap matrix is 8.7138545758E-06.
  Using Symmetric Orthogonalization.

  SCF Guess: Orbitals guess was supplied from a previous computation.

  ==> Iterations <==

                           Total Energy        Delta E     RMS |[F,P]|

   @DF-RHF iter   0:  -157.27685322097392   -1.57277e+02   1.24057e-04 
   @DF-RHF iter   1:  -157.35377873437423   -7.69255e-02   5.17237e-05 
   @DF-RHF iter   2:  -157.35405173336872   -2.72999e-04   2.67618e-05 DIIS
   @DF-RHF iter   3:  -157.35410978473806   -5.80514e-05   2.88076e-06 DIIS
   @DF-RHF iter   4:  -157.35411125480621   -1.47007e-06   7.76095e-07 DIIS
   @DF-RHF iter   5:  -157.35411134465602   -8.98498e-08   2.59219e-07 DIIS
   @DF-RHF iter   6:  -157.35411135493240   -1.02764e-08   4.28996e-08 DIIS
   @DF-RHF iter   7:  -157.35411135534756   -4.15156e-10   6.26724e-09 DIIS
   @DF-RHF iter   8:  -157.35411135535779   -1.02318e-11   1.13453e-09 DIIS
   @DF-RHF iter   9:  -157.35411135535628    1.50635e-12   2.69442e-10 DIIS
   @DF-RHF iter  10:  -157.35411135535605    2.27374e-13   5.55238e-11 DIIS

  ==> Post-Iterations <==

    Orbital Energies (a.u.)
    -----------------------

    Doubly Occupied:                                                      

       1A    -11.210325     2A    -11.209689     3A    -11.203706  
       4A    -11.203565     5A     -1.071075     6A     -0.979684  
       7A     -0.860134     8A     -0.789317     9A     -0.645032  
      10A     -0.584723    11A     -0.572359    12A     -0.572100  
      13A     -0.512375    14A     -0.500151    15A     -0.469702  
      16A     -0.465245    17A     -0.449038  

    Virtual:                                                              

      18A      0.032287    19A      0.037082    20A      0.039591  
      21A      0.040801    22A      0.057006    23A      0.058486  
      24A      0.059726    25A      0.061242    26A      0.081784  
      27A      0.083255    28A      0.098514    29A      0.112392  
      30A      0.123044    31A      0.130790    32A      0.136022  
      33A      0.141693    34A      0.143259    35A      0.146325  
      36A      0.148293    37A      0.159796    38A      0.161308  
      39A      0.167593    40A      0.170928    41A      0.202054  
      42A      0.209217    43A      0.211643    44A      0.229025  
      45A      0.246043    46A      0.248747    47A      0.251130  
      48A      0.268348    49A      0.274676    50A      0.281754  
      51A      0.283508    52A      0.315610    53A      0.318177  
      54A      0.330435    55A      0.336013    56A      0.341911  
      57A      0.349993    58A      0.357250    59A      0.357323  
      60A      0.361288    61A      0.373219    62A      0.373886  
      63A      0.383020    64A      0.386427    65A      0.389605  
      66A      0.391469    67A      0.396317    68A      0.401759  
      69A      0.405204    70A      0.412823    71A      0.421953  
      72A      0.428556    73A      0.441494    74A      0.446694  
      75A      0.453002    76A      0.459538    77A      0.462245  
      78A      0.463927    79A      0.472702    80A      0.479295  
      81A      0.485988    82A      0.492502    83A      0.499302  
      84A      0.503023    85A      0.507014    86A      0.512053  
      87A      0.519955    88A      0.532650    89A      0.533941  
      90A      0.536994    91A      0.546083    92A      0.560794  
      93A      0.567020    94A      0.572044    95A      0.586555  
      96A      0.591433    97A      0.602152    98A      0.610038  
      99A      0.621932   100A      0.629996   101A      0.638925  
     102A      0.660014   103A      0.678275   104A      0.683280  
     105A      0.701201   106A      0.709311   107A      0.762597  
     108A      0.779032   109A      0.796657   110A      0.813290  
     111A      0.822088   112A      0.827559   113A      0.834854  
     114A      0.843238   115A      0.848336   116A      0.858931  
     117A      0.864046   118A      0.866728   119A      0.884084  
     120A      0.890801   121A      0.894984   122A      0.900925  
     123A      0.904720   124A      0.919480   125A      0.924111  
     126A      0.929867   127A      0.935585   128A      0.941455  
     129A      0.942267   130A      0.957766   131A      0.964235  
     132A      0.970686   133A      0.977027   134A      0.985396  
     135A      0.993822   136A      1.013853   137A      1.018261  
     138A      1.033901   139A      1.047842   140A      1.064289  
     141A      1.071628   142A      1.078662   143A      1.091593  
     144A      1.108165   145A      1.110814   146A      1.121649  
     147A      1.128469   148A      1.130997   149A      1.140761  
     150A      1.155573   151A      1.160533   152A      1.162834  
     153A      1.173668   154A      1.190231   155A      1.196908  
     156A      1.217559   157A      1.220845   158A      1.229730  
     159A      1.243803   160A      1.252741   161A      1.257938  
     162A      1.261268   163A      1.270588   164A      1.277181  
     165A      1.291707   166A      1.299276   167A      1.315854  
     168A      1.323056   169A      1.338621   170A      1.349602  
     171A      1.357286   172A      1.384787   173A      1.397474  
     174A      1.419524   175A      1.427773   176A      1.437982  
     177A      1.458010   178A      1.480135   179A      1.497162  
     180A      1.503690   181A      1.517775   182A      1.524495  
     183A      1.550805   184A      1.558059   185A      1.561580  
     186A      1.587190   187A      1.591479   188A      1.614341  
     189A      1.627308   190A      1.639405   191A      1.645442  
     192A      1.649382   193A      1.673627   194A      1.690498  
     195A      1.692043   196A      1.699760   197A      1.709150  
     198A      1.717272   199A      1.731223   200A      1.740089  
     201A      1.745965   202A      1.758783   203A      1.765389  
     204A      1.773553   205A      1.782527   206A      1.792394  
     207A      1.794160   208A      1.804966   209A      1.818272  
     210A      1.843213   211A      1.862608   212A      1.866733  
     213A      1.885025   214A      1.900231   215A      1.911896  
     216A      1.922393   217A      1.953509   218A      1.969983  
     219A      1.977953   220A      1.987953   221A      1.992612  
     222A      2.003439   223A      2.028817   224A      2.035544  
     225A      2.041147   226A      2.062003   227A      2.088158  
     228A      2.098492   229A      2.118536   230A      2.141071  
     231A      2.156096   232A      2.183691   233A      2.192225  
     234A      2.208924   235A      2.237556   236A      2.249035  
     237A      2.258883   238A      2.273627   239A      2.294896  
     240A      2.299733   241A      2.325977   242A      2.328174  
     243A      2.339614   244A      2.346058   245A      2.363148  
     246A      2.371318   247A      2.420717   248A      2.441275  
     249A      2.467812   250A      2.478918   251A      2.508240  
     252A      2.543877   253A      2.603715   254A      2.618556  
     255A      2.640445   256A      2.661733   257A      2.729088  
     258A      2.897966   259A      2.933750   260A      3.027035  
     261A      3.240102   262A      3.245381   263A      3.293234  
     264A      3.379687   265A      3.396340   266A      3.425745  
     267A      3.451652   268A      3.458642   269A      3.466022  
     270A      3.484694   271A      3.521317   272A      3.542537  
     273A      3.571042   274A      3.578653   275A      3.599929  
     276A      3.607393   277A      3.635819   278A      3.658417  
     279A      3.679585   280A      3.686346   281A      3.712976  
     282A      3.722551   283A      3.731097   284A      3.743286  
     285A      3.753176   286A      3.767803   287A      3.779515  
     288A      3.797505   289A      3.809510   290A      3.820667  
     291A      3.847957   292A      3.858052   293A      3.876070  
     294A      3.882911   295A      3.911388   296A      3.921657  
     297A      3.940186   298A      3.948444   299A      3.970865  
     300A      3.987851   301A      3.997410   302A      4.006148  
     303A      4.013661   304A      4.013937   305A      4.044307  
     306A      4.050670   307A      4.062142   308A      4.077442  
     309A      4.123129   310A      4.178115   311A      4.191512  
     312A      4.206201   313A      4.221131   314A      4.226252  
     315A      4.237513   316A      4.264508   317A      4.265553  
     318A      4.280190   319A      4.299003   320A      4.320422  
     321A      4.330947   322A      4.365056   323A      4.369202  
     324A      4.399397   325A      4.416925   326A      4.421941  
     327A      4.514462   328A      4.531740   329A      4.566065  
     330A      4.575018   331A      4.618166   332A      4.649483  
     333A      4.665368   334A      4.681699   335A      4.705334  
     336A      4.718863   337A      4.724454   338A      4.735977  
     339A      4.763903   340A      4.776749   341A      4.787464  
     342A      4.837107   343A      4.853224   344A      4.868111  
     345A      4.873703   346A      4.899751   347A      4.927686  
     348A      4.939662   349A      4.952399   350A      4.998096  
     351A      5.027182   352A      5.046061   353A      5.063436  
     354A      5.078910   355A      5.107326   356A      5.153567  
     357A      5.161980   358A      5.179844   359A      5.188877  
     360A      5.227336   361A      5.229732   362A      5.248594  
     363A      5.252044   364A      5.288777   365A      5.296962  
     366A      5.326438   367A      5.371623   368A      5.386291  
     369A      5.415560   370A      5.431385   371A      5.434991  
     372A      5.453823   373A      5.470558   374A      5.489500  
     375A      5.553906   376A      5.569948   377A      5.600771  
     378A      5.614307   379A      5.652859   380A      5.655675  
     381A      5.694798   382A      5.733154   383A      5.738549  
     384A      5.751224   385A      5.811839   386A      5.814815  
     387A      5.870150   388A      5.882540   389A      5.923088  
     390A      5.996256   391A      6.064401   392A      6.126879  
     393A      6.136750   394A      6.160865   395A      6.205168  
     396A      6.224951   397A      6.232352   398A      6.270370  
     399A      6.279459   400A      6.324585   401A      6.367724  
     402A      6.404710   403A      6.550234   404A      6.561145  
     405A      6.735898   406A      6.779139   407A      6.827419  
     408A      6.843557   409A      6.854402   410A      6.987132  
     411A     17.975755   412A     18.186922   413A     18.502953  
     414A     18.845276  

    Final Occupation by Irrep:
              A 
    DOCC [    17 ]

  Energy converged.

  @DF-RHF Final Energy:  -157.35411135535605

   => Energetics <=

    Nuclear Repulsion Energy =            131.4145910500007233
    One-Electron Energy =                -470.9409651781544426
    Two-Electron Energy =                 182.1722627727976942
    DFT Exchange-Correlation Energy =       0.0000000000000000
    Empirical Dispersion Energy =           0.0000000000000000
    PCM Polarization Energy =               0.0000000000000000
    EFP Energy =                            0.0000000000000000
    Total Energy =                       -157.3541113553560535



Properties will be evaluated at   0.000000,   0.000000,   0.000000 Bohr

Properties computed using the SCF density matrix

  Nuclear Dipole Moment: (a.u.)
     X:    -0.0016      Y:     0.0040      Z:    -0.0023

  Electronic Dipole Moment: (a.u.)
     X:     0.0023      Y:    -0.0039      Z:     0.0008

  Dipole Moment: (a.u.)
     X:     0.0006      Y:     0.0002      Z:    -0.0015     Total:     0.0016

  Dipole Moment: (Debye)
     X:     0.0016      Y:     0.0004      Z:    -0.0038     Total:     0.0041


*** tstop() called on gpu-2-14.local at Wed Jun 14 14:33:03 2017
Module time:
	user time   =      97.47 seconds =       1.62 minutes
	system time =       0.65 seconds =       0.01 minutes
	total time  =        111 seconds =       1.85 minutes
Total time:
	user time   =     656.79 seconds =      10.95 minutes
	system time =       5.64 seconds =       0.09 minutes
	total time  =        756 seconds =      12.60 minutes

  //>>>>>>>>>>>>>>>>>>>>>>>>>>>>>>>>>>>//
  //               DFMP2               //
  //<<<<<<<<<<<<<<<<<<<<<<<<<<<<<<<<<<<//

   => Loading Basis Set <=

    Name: (AUG-CC-PVTZ AUX)
    Role: RIFIT
    Keyword: DF_BASIS_MP2
    atoms 1-3, 5-6, 8-9, 11-13 entry H          line    29 file /cbio/jclab/home/chayas/anaconda/envs/py35/share/psi4/basis/aug-cc-pvtz-ri.gbs 
    atoms 4, 7, 10, 14         entry C          line   147 file /cbio/jclab/home/chayas/anaconda/envs/py35/share/psi4/basis/aug-cc-pvtz-ri.gbs 

	 --------------------------------------------------------
	                          DF-MP2                         
	      2nd-Order Density-Fitted Moller-Plesset Theory     
	              RMP2 Wavefunction,   1 Threads             
	                                                         
	        Rob Parrish, Justin Turney, Andy Simmonett,      
	           Ed Hohenstein, and C. David Sherrill          
	 --------------------------------------------------------

   => Auxiliary Basis Set <=

  Basis Set: (AUG-CC-PVTZ AUX)
    Blend: AUG-CC-PVTZ-RI
    Number of shells: 252
    Number of basis function: 884
    Number of Cartesian functions: 1094
    Spherical Harmonics?: true
    Max angular momentum: 4

	 --------------------------------------------------------
	                 NBF =   414, NAUX =   884
	 --------------------------------------------------------
	   CLASS    FOCC     OCC    AOCC    AVIR     VIR    FVIR
	   PAIRS       0      17      17     397     397       0
	 --------------------------------------------------------


         ------------------------------------------------------------
                                     CPHF                           
                                  Rob Parrish                       
         ------------------------------------------------------------

  ==> Geometry <==

    Molecular point group: c1
    Full point group: C1

    Geometry (in Angstrom), charge = 0, multiplicity = 1:

       Center              X                  Y                   Z               Mass       
    ------------   -----------------  -----------------  -----------------  -----------------
           H         -2.266219054772    -0.171551619049     0.062580364176     1.007825032070
           H         -2.272238365235     1.587755256052     0.013150064181     1.007825032070
           H         -1.876238919289     0.671725922448    -1.433856902318     1.007825032070
           C         -1.779129136182     0.698339694884    -0.357314769156    12.000000000000
           H          0.252755662128     1.347762188212    -0.643124861722     1.007825032070
           H         -0.189361233861     1.080372285288     1.044752106403     1.007825032070
           C         -0.293787454112     0.704359936082     0.034896402968    12.000000000000
           H         -0.250686484622    -1.348069810672     0.645186283302     1.007825032070
           H          0.192831780304    -1.083166734680    -1.043228186069     1.007825032070
           C          0.295452829111    -0.705242982278    -0.033470527664    12.000000000000
           H          2.187575895377    -1.698175322096     0.306256790411     1.007825032070
           H          1.888698932430    -0.323535515492     1.365030869545     1.007825032070
           H          2.331128531642    -0.058822114284    -0.319148012048     1.007825032070
           C          1.777611009114    -0.697817327071     0.356090583505    12.000000000000

  Nuclear repulsion =  131.414591050000723
  Reference energy  = -157.354111355356054

  ==> Basis Set <==

  Basis Set: AUG-CC-PVTZ
    Blend: AUG-CC-PVTZ
    Number of shells: 146
    Number of basis function: 414
    Number of Cartesian functions: 470
    Spherical Harmonics?: true
    Max angular momentum: 3

  ==> CGRSolver (by Rob Parrish) <==

   Number of roots    =         1
   Preconditioning    =    JACOBI
   Convergence cutoff =     1E-06
   Maximum iterations =       100

  ==> CPHFRHamiltonian (by Rob Parrish) <== 

  ==> DFJK: Density-Fitted J/K Matrices <==

    J tasked:                  Yes
    K tasked:                  Yes
    wK tasked:                  No
    OpenMP threads:              1
    Integrals threads:           1
    Memory (MB):              3576
    Algorithm:                Core
    Integral Cache:           NONE
    Schwarz Cutoff:          1E-12
    Fitting Condition:       1E-12

   => Auxiliary Basis Set <=

  Basis Set: (AUG-CC-PVTZ AUX)
    Blend: AUG-CC-PVTZ-JKFIT
    Number of shells: 260
    Number of basis function: 876
    Number of Cartesian functions: 1074
    Spherical Harmonics?: true
    Max angular momentum: 4

  ==> CPHF Iterations <==

  => Iterations <=

             Iter  Converged  Remaining    Residual
  CGR           1          0          1   8.305E-02
  CGR           2          0          1   1.324E-02
  CGR           3          0          1   3.489E-03
  CGR           4          0          1   8.146E-04
  CGR           5          0          1   1.202E-04
  CGR           6          0          1   2.188E-05
  CGR           7          0          1   3.810E-06
  CGR           8          1          0   8.507E-07

    CGRSolver converged.

  ==> DFCorrGrad: Density-Fitted Correlated Gradients <==

    OpenMP threads:              1
    Integrals threads:           1
    Memory (MB):              3576
    Schwarz Cutoff:          0E+00
    Fitting Condition:       1E-12

   => Auxiliary Basis Set <=

  Basis Set: (AUG-CC-PVTZ AUX)
    Blend: AUG-CC-PVTZ-JKFIT
    Number of shells: 260
    Number of basis function: 876
    Number of Cartesian functions: 1074
    Spherical Harmonics?: true
    Max angular momentum: 4

	-----------------------------------------------------------
	 ==================> DF-MP2 Energies <==================== 
	-----------------------------------------------------------
	 Reference Energy          =    -157.3541113553560535 [Eh]
	 Singles Energy            =      -0.0000000000000001 [Eh]
	 Same-Spin Energy          =      -0.1653433245221063 [Eh]
	 Opposite-Spin Energy      =      -0.6392915935780409 [Eh]
	 Correlation Energy        =      -0.8046349181001473 [Eh]
	 Total Energy              =    -158.1587462734561882 [Eh]
	-----------------------------------------------------------
	 ================> DF-SCS-MP2 Energies <================== 
	-----------------------------------------------------------
	 SCS Same-Spin Scale       =       0.3333333333333333 [-]
	 SCS Opposite-Spin Scale   =       1.2000000000000000 [-]
	 SCS Same-Spin Energy      =      -0.0551144415073688 [Eh]
	 SCS Opposite-Spin Energy  =      -0.7671499122936490 [Eh]
	 SCS Correlation Energy    =      -0.8222643538010179 [Eh]
	 SCS Total Energy          =    -158.1763757091570710 [Eh]
	-----------------------------------------------------------


  -Total Gradient:
     Atom            X                  Y                   Z
    ------   -----------------  -----------------  -----------------
       1        0.003392076180     0.002229547945    -0.001187964845
       2        0.003349468559    -0.002338445823     0.000621563873
       3        0.002378060519     0.001602873437     0.003576333309
       4       -0.013203810144    -0.003963519852    -0.004061608637
       5       -0.003416625553    -0.004442097191    -0.000371519787
       6       -0.002492689858    -0.002697307692    -0.003321602087
       7        0.012616803140     0.015890270720     0.005068983802
       8        0.003373118631     0.003785478146    -0.000572041580
       9        0.002626819592     0.003582095691     0.003142480911
      10       -0.013037414942    -0.015954630975    -0.004558630407
      11       -0.003341872417     0.002384462630    -0.000524167475
      12       -0.002127203815    -0.001397202917    -0.003352843297
      13       -0.003343930726    -0.002059324410     0.001274211588
      14        0.013227200836     0.003377800289     0.004266804634


*** tstop() called on gpu-2-14.local at Wed Jun 14 14:41:50 2017
Module time:
	user time   =     541.36 seconds =       9.02 minutes
	system time =       4.67 seconds =       0.08 minutes
	total time  =        638 seconds =      10.63 minutes
Total time:
	user time   =    1100.68 seconds =      18.34 minutes
	system time =       9.66 seconds =       0.16 minutes
	total time  =       1283 seconds =      21.38 minutes

			-----------------------------------------
			 OPTKING 2.0: for geometry optimizations 
			  - R.A. King,  Bethel University        
			-----------------------------------------

	Previous internal coordinate definitions found.
	---Fragment 1 Geometry and Gradient---
	 H          -4.2825333706       -0.3241855777        0.1182597496
	 H          -4.2939082189        3.0004226000        0.0248500199
	 H          -3.5455777173        1.2693780298       -2.7095968591
	 C          -3.3620668224        1.3196707711       -0.6752270569
	 H           0.4776389800        2.5469014280       -1.2153298579
	 H          -0.3578408722        2.0416077408        1.9742953579
	 C          -0.5551778295        1.3310473782        0.0659446446
	 H          -0.4737288012       -2.5474827502        1.2192253801
	 H           0.3643992545       -2.0468884848       -1.9714155658
	 C           0.5583249322       -1.3327160936       -0.0632501308
	 H           4.1339193372       -3.2090862844        0.5787414602
	 H           3.5691237298       -0.6113935185        2.5795345064
	 H           4.4051945054       -0.1111576866       -0.6031023386
	 C           3.3591979780       -1.3186836389        0.6729136813
	             0.0033920762        0.0022295479       -0.0011879648
	             0.0033494686       -0.0023384458        0.0006215639
	             0.0023780605        0.0016028734        0.0035763333
	            -0.0132038101       -0.0039635199       -0.0040616086
	            -0.0034166256       -0.0044420972       -0.0003715198
	            -0.0024926899       -0.0026973077       -0.0033216021
	             0.0126168031        0.0158902707        0.0050689838
	             0.0033731186        0.0037854781       -0.0005720416
	             0.0026268196        0.0035820957        0.0031424809
	            -0.0130374149       -0.0159546310       -0.0045586304
	            -0.0033418724        0.0023844626       -0.0005241675
	            -0.0021272038       -0.0013972029       -0.0033528433
	            -0.0033439307       -0.0020593244        0.0012742116
	             0.0132272008        0.0033778003        0.0042668046

	---Fragment 1 Intrafragment Coordinates---
	 - Coordinate -           - BOHR/RAD -       - ANG/DEG -
	 R(1,4)           =         2.044295	       1.081795
	 R(2,4)           =         2.045327	       1.082340
	 R(3,4)           =         2.043249	       1.081241
	 R(4,7)           =         2.903117	       1.536264
	 R(5,7)           =         2.046137	       1.082769
	 R(6,7)           =         2.045884	       1.082635
	 R(7,10)          =         2.890020	       1.529333
	 R(8,10)          =         2.045858	       1.082622
	 R(9,10)          =         2.046642	       1.083036
	 R(10,14)         =         2.896036	       1.532516
	 R(11,14)         =         2.045161	       1.082253
	 R(12,14)         =         2.044390	       1.081845
	 R(13,14)         =         2.044614	       1.081963
	 B(1,4,2)         =         1.899476	     108.831986
	 B(1,4,3)         =         1.903107	     109.039992
	 B(1,4,7)         =         1.917068	     109.839890
	 B(2,4,3)         =         1.896633	     108.669093
	 B(2,4,7)         =         1.928248	     110.480497
	 B(3,4,7)         =         1.918910	     109.945449
	 B(4,7,5)         =         1.907623	     109.298738
	 B(4,7,6)         =         1.910024	     109.436320
	 B(4,7,10)        =         1.936382	     110.946518
	 B(5,7,6)         =         1.906072	     109.209895
	 B(5,7,10)        =         1.902044	     108.979119
	 B(6,7,10)        =         1.901445	     108.944764
	 B(7,10,8)        =         1.901697	     108.959237
	 B(7,10,9)        =         1.903713	     109.074722
	 B(7,10,14)       =         1.935639	     110.903937
	 B(8,10,9)        =         1.906524	     109.235796
	 B(8,10,14)       =         1.908598	     109.354598
	 B(9,10,14)       =         1.907448	     109.288702
	 B(10,14,11)      =         1.928555	     110.498077
	 B(10,14,12)      =         1.915644	     109.758295
	 B(10,14,13)      =         1.916646	     109.815747
	 B(11,14,12)      =         1.900574	     108.894879
	 B(11,14,13)      =         1.900084	     108.866805
	 B(12,14,13)      =         1.901993	     108.976154
	 D(1,4,7,5)       =         2.798296	     160.330544
	 D(1,4,7,6)       =        -1.398270	     -80.114970
	 D(1,4,7,10)      =         0.700418	      40.131010
	 D(2,4,7,5)       =        -1.389249	     -79.598113
	 D(2,4,7,6)       =         0.697370	      39.956373
	 D(2,4,7,10)      =         2.796059	     160.202353
	 D(3,4,7,5)       =         0.704042	      40.338614
	 D(3,4,7,6)       =         2.790661	     159.893100
	 D(3,4,7,10)      =        -1.393836	     -79.860920
	 D(4,7,10,8)      =        -1.041239	     -59.658586
	 D(4,7,10,9)      =         1.038647	      59.510070
	 D(4,7,10,14)     =         3.140234	     179.922177
	 D(5,7,10,8)      =         3.140755	     179.952018
	 D(5,7,10,9)      =        -1.062545	     -60.879326
	 D(5,7,10,14)     =         1.039043	      59.532781
	 D(6,7,10,8)      =         1.062541	      60.879101
	 D(6,7,10,9)      =        -3.140759	    -179.952243
	 D(6,7,10,14)     =        -1.039171	     -59.540136
	 D(7,10,14,11)    =         3.140806	     179.954923
	 D(7,10,14,12)    =         1.044522	      59.846675
	 D(7,10,14,13)    =        -1.046061	     -59.934854
	 D(8,10,14,11)    =         1.043196	      59.770710
	 D(8,10,14,12)    =        -1.053089	     -60.337539
	 D(8,10,14,13)    =         3.139515	     179.880932
	 D(9,10,14,11)    =        -1.043011	     -59.760110
	 D(9,10,14,12)    =        -3.139295	    -179.868358
	 D(9,10,14,13)    =         1.053308	      60.350113

	Current energy   :      -158.1587462735

	Energy change for the previous step:
		Projected    :        -0.0047163512
		Actual       :        -0.0030377171

	Performing BFGS update.
	Previous computed or guess Hessian on step 1.
	Steps to be used in Hessian update: 1
	Adding user-defined constraint: Fragment 1; Coordinate 46:
		Value =    -1.393836; Fixed value    =    -1.396260
		Force =    -0.001273; Force constant =     0.525000
	Removing off-diagonal coupling between coordinate 46 and others.
	Taking RFO optimization step.
	Going to follow RFO solution 1.
	Using RFO vector 1.

	Determining step-restricting scale parameter for RS-RFO.
	Maximum step size allowed    0.10000

	 Iter      |step|        alpha        rfo_root  
	------------------------------------------------
	    0     0.17554       1.00000           1
	    1     0.14288       4.63299           1
	    2     0.11660      13.38893           1
	    3     0.10351      21.74071           1
	    4     0.10021      24.54150           1
	    5     0.10000      24.73118           1
	------------------------------------------------
	Norm of target step-size    0.10000
	Projected energy change by RFO approximation:        -0.0008276710

	Back-transformation to cartesian coordinates...
	Successfully converged to displaced geometry.

	--- Internal Coordinate Step in ANG or DEG, aJ/ANG or AJ/DEG ---
	 ---------------------------------------------------------------------------
	   Coordinate                Previous        Force       Change         New 
	   ----------                --------       ------       ------       ------
	    1 R(1,4)          =      1.081795     0.031153     0.005836     1.087630
	    2 R(2,4)          =      1.082340     0.026651     0.004770     1.087111
	    3 R(3,4)          =      1.081241     0.031421     0.005773     1.087014
	    4 R(4,7)          =      1.536264    -0.034825    -0.009811     1.526453
	    5 R(5,7)          =      1.082769     0.034038     0.006399     1.089168
	    6 R(6,7)          =      1.082635     0.035225     0.006611     1.089246
	    7 R(7,10)         =      1.529333    -0.039491    -0.009809     1.519524
	    8 R(8,10)         =      1.082622     0.035492     0.006665     1.089287
	    9 R(9,10)         =      1.083036     0.036487     0.006840     1.089876
	   10 R(10,14)        =      1.532516    -0.038749    -0.010469     1.522047
	   11 R(11,14)        =      1.082253     0.028389     0.005030     1.087282
	   12 R(12,14)        =      1.081845     0.031544     0.005866     1.087711
	   13 R(13,14)        =      1.081963     0.030666     0.005707     1.087670
	   14 B(1,4,2)        =    108.831986    -0.000158    -0.677161   108.154824
	   15 B(1,4,3)        =    109.039992    -0.000142    -0.599143   108.440849
	   16 B(1,4,7)        =    109.839890     0.000128     0.670455   110.510345
	   17 B(2,4,3)        =    108.669093    -0.000187    -0.924893   107.744201
	   18 B(2,4,7)        =    110.480497     0.000199     0.763066   111.243563
	   19 B(3,4,7)        =    109.945449     0.000149     0.693577   110.639026
	   20 B(4,7,5)        =    109.298738    -0.000024     0.190217   109.488955
	   21 B(4,7,6)        =    109.436320    -0.000017     0.137398   109.573718
	   22 B(4,7,10)       =    110.946518     0.000275     1.127594   112.074112
	   23 B(5,7,6)        =    109.209895    -0.000083    -1.183934   108.025961
	   24 B(5,7,10)       =    108.979119    -0.000069    -0.031299   108.947820
	   25 B(6,7,10)       =    108.944764    -0.000088    -0.305151   108.639613
	   26 B(7,10,8)       =    108.959237    -0.000082    -0.211827   108.747410
	   27 B(7,10,9)       =    109.074722    -0.000064    -0.091200   108.983522
	   28 B(7,10,14)      =    110.903937     0.000267     1.093700   111.997637
	   29 B(8,10,9)       =    109.235796    -0.000078    -1.140700   108.095096
	   30 B(8,10,14)      =    109.354598    -0.000019     0.155734   109.510332
	   31 B(9,10,14)      =    109.288702    -0.000028     0.134336   109.423038
	   32 B(10,14,11)     =    110.498077     0.000202     0.847118   111.345194
	   33 B(10,14,12)     =    109.758295     0.000116     0.572040   110.330335
	   34 B(10,14,13)     =    109.815747     0.000122     0.594657   110.410404
	   35 B(11,14,12)     =    108.894879    -0.000151    -0.656660   108.238219
	   36 B(11,14,13)     =    108.866805    -0.000152    -0.653087   108.213718
	   37 B(12,14,13)     =    108.976154    -0.000146    -0.770795   108.205359
	   38 D(1,4,7,5)      =    160.330544     0.000021     1.070097   161.400641
	   39 D(1,4,7,6)      =    -80.114970    -0.000008    -0.175571   -80.290541
	   40 D(1,4,7,10)     =     40.131010     0.000004     0.258478    40.389488
	   41 D(2,4,7,5)      =    -79.598113     0.000023     1.154722   -78.443391
	   42 D(2,4,7,6)      =     39.956373    -0.000005    -0.090945    39.865428
	   43 D(2,4,7,10)     =    160.202353     0.000007     0.343104   160.545456
	   44 D(3,4,7,5)      =     40.338614     0.000021     0.942895    41.281510
	   45 D(3,4,7,6)      =    159.893100    -0.000008    -0.302772   159.590328
	   46 D(3,4,7,10)     =    -79.860920     0.000004     0.131277   -79.729643
[...]
  CGR           2          0          1   1.343E-02
  CGR           3          0          1   3.544E-03
  CGR           4          0          1   8.166E-04
  CGR           5          0          1   1.199E-04
  CGR           6          0          1   2.230E-05
  CGR           7          0          1   3.944E-06
  CGR           8          1          0   9.033E-07

    CGRSolver converged.

  ==> DFCorrGrad: Density-Fitted Correlated Gradients <==

    OpenMP threads:              1
    Integrals threads:           1
    Memory (MB):              3576
    Schwarz Cutoff:          0E+00
    Fitting Condition:       1E-12

   => Auxiliary Basis Set <=

  Basis Set: (AUG-CC-PVTZ AUX)
    Blend: AUG-CC-PVTZ-JKFIT
    Number of shells: 260
    Number of basis function: 876
    Number of Cartesian functions: 1074
    Spherical Harmonics?: true
    Max angular momentum: 4

	-----------------------------------------------------------
	 ==================> DF-MP2 Energies <==================== 
	-----------------------------------------------------------
	 Reference Energy          =    -157.3552336085741672 [Eh]
	 Singles Energy            =      -0.0000000000000002 [Eh]
	 Same-Spin Energy          =      -0.1654437269646126 [Eh]
	 Opposite-Spin Energy      =      -0.6393219435335612 [Eh]
	 Correlation Energy        =      -0.8047656704981740 [Eh]
	 Total Energy              =    -158.1599992790723377 [Eh]
	-----------------------------------------------------------
	 ================> DF-SCS-MP2 Energies <================== 
	-----------------------------------------------------------
	 SCS Same-Spin Scale       =       0.3333333333333333 [-]
	 SCS Opposite-Spin Scale   =       1.2000000000000000 [-]
	 SCS Same-Spin Energy      =      -0.0551479089882042 [Eh]
	 SCS Opposite-Spin Energy  =      -0.7671863322402734 [Eh]
	 SCS Correlation Energy    =      -0.8223342412284779 [Eh]
	 SCS Total Energy          =    -158.1775678498026423 [Eh]
	-----------------------------------------------------------


  -Total Gradient:
     Atom            X                  Y                   Z
    ------   -----------------  -----------------  -----------------
       1       -0.000017376320    -0.000010119776     0.000000610108
       2       -0.000007955428    -0.000007202259    -0.000003884832
       3        0.000028029134     0.002807112630    -0.000051652952
       4       -0.000229146288    -0.003632104199     0.000831389038
       5        0.000011861808     0.000005313766    -0.000012434930
       6       -0.000001208404     0.000000307433    -0.000018743957
       7        0.000733257293     0.001181962519    -0.002687235485
       8        0.000013333489    -0.000000742287    -0.000007603509
       9       -0.000005955853     0.000007322443    -0.000007643760
      10       -0.000532243945    -0.000334623734     0.001934876899
      11        0.000015641591    -0.000007496701     0.000004426459
      12        0.000009600468     0.000002083822     0.000003070627
      13       -0.000003140979     0.000002982082    -0.000006748483
      14       -0.000014696565    -0.000014795736     0.000021574778


*** tstop() called on gpu-2-14.local at Wed Jun 14 15:22:55 2017
Module time:
	user time   =     520.21 seconds =       8.67 minutes
	system time =       4.82 seconds =       0.08 minutes
	total time  =        606 seconds =      10.10 minutes
Total time:
	user time   =    3192.85 seconds =      53.21 minutes
	system time =      29.19 seconds =       0.49 minutes
	total time  =       3748 seconds =      62.47 minutes

			-----------------------------------------
			 OPTKING 2.0: for geometry optimizations 
			  - R.A. King,  Bethel University        
			-----------------------------------------

	Previous internal coordinate definitions found.
	---Fragment 1 Geometry and Gradient---
	 H          -4.3444424435       -0.3178060046        0.0893185049
	 H          -4.3139148495        3.0037051436       -0.0286311060
	 H          -3.5569392375        1.2719175791       -2.7376587850
	 C          -3.3583693119        1.3085458340       -0.6918593191
	 H           0.4791614979        2.5901936664       -1.1265072287
	 H          -0.4021415921        2.0122575356        2.0015336020
	 C          -0.5896718585        1.3014594726        0.0751026843
	 H          -0.4496768637       -2.5561356290        1.2398228191
	 H           0.3386130019       -2.0859312274       -1.9339873252
	 C           0.5835606319       -1.3115918625       -0.0379562838
	 H           4.1700163370       -3.1925445763        0.5908029682
	 H           3.6380840124       -0.5604575461        2.5532929212
	 H           4.4335161052       -0.1143917096       -0.6410079387
	 C           3.3651292446       -1.3026805109        0.6541268320
	            -0.0000173763       -0.0000101198        0.0000006101
	            -0.0000079554       -0.0000072023       -0.0000038848
	             0.0000280291        0.0028071126       -0.0000516530
	            -0.0002291463       -0.0036321042        0.0008313890
	             0.0000118618        0.0000053138       -0.0000124349
	            -0.0000012084        0.0000003074       -0.0000187440
	             0.0007332573        0.0011819625       -0.0026872355
	             0.0000133335       -0.0000007423       -0.0000076035
	            -0.0000059559        0.0000073224       -0.0000076438
	            -0.0005322439       -0.0003346237        0.0019348769
	             0.0000156416       -0.0000074967        0.0000044265
	             0.0000096005        0.0000020838        0.0000030706
	            -0.0000031410        0.0000029821       -0.0000067485
	            -0.0000146966       -0.0000147957        0.0000215748

	---Fragment 1 Intrafragment Coordinates---
	 - Coordinate -           - BOHR/RAD -       - ANG/DEG -
	 R(1,4)           =         2.056113	       1.088048
	 R(2,4)           =         2.055846	       1.087907
	 R(3,4)           =         2.055740	       1.087851
	 R(4,7)           =         2.872972	       1.520311
	 R(5,7)           =         2.060851	       1.090555
	 R(6,7)           =         2.061926	       1.091124
	 R(7,10)          =         2.866582	       1.516930
	 R(8,10)          =         2.061356	       1.090823
	 R(9,10)          =         2.062652	       1.091509
	 R(10,14)         =         2.866388	       1.516827
	 R(11,14)         =         2.055101	       1.087513
	 R(12,14)         =         2.057239	       1.088644
	 R(13,14)         =         2.056904	       1.088467
	 B(1,4,2)         =         1.882558	     107.862631
	 B(1,4,3)         =         1.894073	     108.522363
	 B(1,4,7)         =         1.937777	     111.026444
	 B(2,4,3)         =         1.865903	     106.908354
	 B(2,4,7)         =         1.943179	     111.335981
	 B(3,4,7)         =         1.937682	     111.020993
	 B(4,7,5)         =         1.920497	     110.036389
	 B(4,7,6)         =         1.913689	     109.646318
	 B(4,7,10)        =         1.967244	     112.714776
	 B(5,7,6)         =         1.856685	     106.380189
	 B(5,7,10)        =         1.912157	     109.558541
	 B(6,7,10)        =         1.890054	     108.292105
	 B(7,10,8)        =         1.897324	     108.708676
	 B(7,10,9)        =         1.906949	     109.260149
	 B(7,10,14)       =         1.965800	     112.632033
	 B(8,10,9)        =         1.858365	     106.476487
	 B(8,10,14)       =         1.916246	     109.792781
	 B(9,10,14)       =         1.915960	     109.776402
	 B(10,14,11)      =         1.949553	     111.701136
	 B(10,14,12)      =         1.931327	     110.656911
	 B(10,14,13)      =         1.932441	     110.720698
	 B(11,14,12)      =         1.884158	     107.954309
	 B(11,14,13)      =         1.884334	     107.964385
	 B(12,14,13)      =         1.879608	     107.693612
	 D(1,4,7,5)       =         2.858258	     163.766096
	 D(1,4,7,6)       =        -1.388569	     -79.559164
	 D(1,4,7,10)      =         0.718256	      41.153060
	 D(2,4,7,5)       =        -1.327130	     -76.038971
	 D(2,4,7,6)       =         0.709228	      40.635769
	 D(2,4,7,10)      =         2.816054	     161.347993
	 D(3,4,7,5)       =         0.749581	      42.947801
	 D(3,4,7,6)       =         2.785939	     159.622541
	 D(3,4,7,10)      =        -1.390421	     -79.665235
	 D(4,7,10,8)      =        -1.043110	     -59.765817
	 D(4,7,10,9)      =         0.978309	      56.052984
	 D(4,7,10,14)     =         3.112417	     178.328339
	 D(5,7,10,8)      =         3.095406	     177.353691
	 D(5,7,10,9)      =        -1.166360	     -66.827508
	 D(5,7,10,14)     =         0.967747	      55.447847
	 D(6,7,10,8)      =         1.077184	      61.718124
	 D(6,7,10,9)      =         3.098604	     177.536925
	 D(6,7,10,14)     =        -1.050474	     -60.187720
	 D(7,10,14,11)    =         3.126874	     179.156679
	 D(7,10,14,12)    =         1.027151	      58.851412
	 D(7,10,14,13)    =        -1.055606	     -60.481769
	 D(8,10,14,11)    =         1.009957	      57.866301
	 D(8,10,14,12)    =        -1.089766	     -62.438966
	 D(8,10,14,13)    =         3.110663	     178.227853
	 D(9,10,14,11)    =        -1.027290	     -58.859359
	 D(9,10,14,12)    =        -3.127013	    -179.164627
	 D(9,10,14,13)    =         1.073416	      61.502193

	Current energy   :      -158.1599992791

	Energy change for the previous step:
		Projected    :        -0.0000052109
		Actual       :         0.0000008709

	Performing BFGS update.
	Previous computed or guess Hessian on step 1.
	Steps to be used in Hessian update: 5 4
	Adding user-defined constraint: Fragment 1; Coordinate 46:
		Value =    -1.390421; Fixed value    =    -1.396260
		Force =    -0.003650; Force constant =     0.625000
	Removing off-diagonal coupling between coordinate 46 and others.
	Taking RFO optimization step.
	Going to follow RFO solution 1.
	Using RFO vector 1.
	Norm of target step-size    0.01020
	Projected energy change by RFO approximation:         0.0000002156

	Back-transformation to cartesian coordinates...
	Successfully converged to displaced geometry.

	--- Internal Coordinate Step in ANG or DEG, aJ/ANG or AJ/DEG ---
	 ---------------------------------------------------------------------------
	   Coordinate                Previous        Force       Change         New 
	   ----------                --------       ------       ------       ------
	    1 R(1,4)          =      1.088048    -0.000136     0.000087     1.088135
	    2 R(2,4)          =      1.087907     0.000029     0.000005     1.087912
	    3 R(3,4)          =      1.087851     0.000011     0.000085     1.087936
	    4 R(4,7)          =      1.520311    -0.000073    -0.000047     1.520264
	    5 R(5,7)          =      1.090555    -0.000138     0.000104     1.090659
	    6 R(6,7)          =      1.091124     0.000144     0.000055     1.091179
	    7 R(7,10)         =      1.516930    -0.000217    -0.000103     1.516827
	    8 R(8,10)         =      1.090823     0.000090     0.000041     1.090863
	    9 R(9,10)         =      1.091509    -0.000041     0.000069     1.091577
	   10 R(10,14)        =      1.516827    -0.000103    -0.000073     1.516754
	   11 R(11,14)        =      1.087513    -0.000106     0.000036     1.087549
	   12 R(12,14)        =      1.088644    -0.000040     0.000089     1.088733
	   13 R(13,14)        =      1.088467    -0.000036     0.000104     1.088571
	   14 B(1,4,2)        =    107.862631     0.000001    -0.001972   107.860659
	   15 B(1,4,3)        =    108.522363     0.000003    -0.010450   108.511913
	   16 B(1,4,7)        =    111.026444     0.000000     0.003534   111.029978
	   17 B(2,4,3)        =    106.908354    -0.000003     0.000919   106.909273
	   18 B(2,4,7)        =    111.335981    -0.000003    -0.007895   111.328086
	   19 B(3,4,7)        =    111.020993     0.000001     0.015181   111.036174
	   20 B(4,7,5)        =    110.036389    -0.000000    -0.016414   110.019975
	   21 B(4,7,6)        =    109.646318     0.000001     0.018753   109.665071
	   22 B(4,7,10)       =    112.714776    -0.000001    -0.000770   112.714006
	   23 B(5,7,6)        =    106.380189    -0.000000     0.006039   106.386229
	   24 B(5,7,10)       =    109.558541     0.000004    -0.015383   109.543158
	   25 B(6,7,10)       =    108.292105    -0.000003     0.008648   108.300753
	   26 B(7,10,8)       =    108.708676    -0.000000     0.009180   108.717855
	   27 B(7,10,9)       =    109.260149     0.000001    -0.005291   109.254859
	   28 B(7,10,14)      =    112.632033    -0.000001    -0.013954   112.618079
	   29 B(8,10,9)       =    106.476487    -0.000000     0.006593   106.483080
	   30 B(8,10,14)      =    109.792781     0.000001     0.015774   109.808555
	   31 B(9,10,14)      =    109.776402    -0.000001    -0.011024   109.765378
	   32 B(10,14,11)     =    111.701136    -0.000001    -0.011735   111.689401
	   33 B(10,14,12)     =    110.656911    -0.000001     0.000520   110.657431
	   34 B(10,14,13)     =    110.720698     0.000001     0.018953   110.739651
	   35 B(11,14,12)     =    107.954309     0.000001     0.000609   107.954917
	   36 B(11,14,13)     =    107.964385     0.000000    -0.006183   107.958202
	   37 B(12,14,13)     =    107.693612     0.000000    -0.002444   107.691169
	   38 D(1,4,7,5)      =    163.766096     0.000000    -0.043736   163.722360
	   39 D(1,4,7,6)      =    -79.559164     0.000000    -0.034958   -79.594122
	   40 D(1,4,7,10)     =     41.153060    -0.000001    -0.011361    41.141699
	   41 D(2,4,7,5)      =    -76.038971     0.000000    -0.049151   -76.088123
	   42 D(2,4,7,6)      =     40.635769     0.000000    -0.040374    40.595395
	   43 D(2,4,7,10)     =    161.347993    -0.000001    -0.016777   161.331216
	   44 D(3,4,7,5)      =     42.947801    -0.000001    -0.043161    42.904639
	   45 D(3,4,7,6)      =    159.622541    -0.000001    -0.034384   159.588157
	   46 D(3,4,7,10)     =    -79.665235    -0.000002    -0.010787   -79.676022
	   47 D(4,7,10,8)     =    -59.765817     0.000000    -0.146191   -59.912008
	   48 D(4,7,10,9)     =     56.052984     0.000000    -0.136154    55.916830
	   49 D(4,7,10,14)    =    178.328339     0.000000    -0.163443   178.164896
	   50 D(5,7,10,8)     =    177.353691    -0.000000    -0.113341   177.240350
	   51 D(5,7,10,9)     =    -66.827508    -0.000000    -0.103304   -66.930812
	   52 D(5,7,10,14)    =     55.447847    -0.000000    -0.130593    55.317253
	   53 D(6,7,10,8)     =     61.718124    -0.000000    -0.117040    61.601084
	   54 D(6,7,10,9)     =    177.536925    -0.000000    -0.107003   177.429922
	   55 D(6,7,10,14)    =    -60.187720    -0.000000    -0.134292   -60.322012
	   56 D(7,10,14,11)   =    179.156679    -0.000000     0.151044   179.307723
	   57 D(7,10,14,12)   =     58.851412     0.000000     0.157771    59.009183
	   58 D(7,10,14,13)   =    -60.481769    -0.000000     0.148259   -60.333510
	   59 D(8,10,14,11)   =     57.866301     0.000000     0.137597    58.003899
	   60 D(8,10,14,12)   =    -62.438966     0.000000     0.144324   -62.294642
	   61 D(8,10,14,13)   =    178.227853     0.000000     0.134812   178.362665
	   62 D(9,10,14,11)   =    -58.859359    -0.000000     0.126833   -58.732526
	   63 D(9,10,14,12)   =   -179.164627     0.000000     0.133561  -179.031066
	   64 D(9,10,14,13)   =     61.502193     0.000000     0.124048    61.626240
	 ---------------------------------------------------------------------------
	Successfully symmetrized geometry.
	 Forces used to impose fixed constraints are not included.
	  Forces zeroed: 46 

  ==> Convergence Check <==

  Measures of convergence in internal coordinates in au.
  Criteria marked as inactive (o), active & met (*), and active & unmet ( ).
  ---------------------------------------------------------------------------------------------
   Step     Total Energy     Delta E     MAX Force     RMS Force      MAX Disp      RMS Disp   
  ---------------------------------------------------------------------------------------------
    Convergence Criteria    1.00e-06 *    3.00e-04 *             o    1.20e-03 *             o
  ---------------------------------------------------------------------------------------------
      6    -158.15999928    8.71e-07 *    5.72e-05 *    1.98e-05 o    2.85e-03      1.28e-03 o  ~
  ---------------------------------------------------------------------------------------------


  **** Optimization is complete! (in 6 steps) ****

  ==> Optimization Summary <==

  Measures of convergence in internal coordinates in au.
  --------------------------------------------------------------------------------------------------------------- ~
   Step         Total Energy             Delta E       MAX Force       RMS Force        MAX Disp        RMS Disp  ~
  --------------------------------------------------------------------------------------------------------------- ~
      1    -158.155708556314   -158.155708556314      0.01328300      0.00560692      0.02526328      0.01250528  ~
      2    -158.158746273456     -0.003037717142      0.00479334      0.00225921      0.03121871      0.01252278  ~
      3    -158.159759338911     -0.001013065455      0.00164543      0.00062132      0.04508841      0.01252129  ~
      4    -158.159983020959     -0.000223682048      0.00068038      0.00016942      0.02826476      0.00882929  ~
      5    -158.160000149973     -0.000017129014      0.00013187      0.00004576      0.00369470      0.00144475  ~
      6    -158.159999279072      0.000000870901      0.00010969      0.00002405      0.00285263      0.00127507  ~
  --------------------------------------------------------------------------------------------------------------- ~

	Writing optimization data to binary file.
	Final energy is   -158.1599992790723
	Final (previous) structure:
	Cartesian Geometry (in Angstrom)
	    H    -2.2989799251  -0.1681756944   0.0472653171
	    H    -2.2828254182   1.5894923033  -0.0151509288
	    H    -1.8822511768   0.6730697940  -1.4487066339
	    C    -1.7771724979   0.6924526318  -0.3661161832
	    H     0.2535613439   1.3706714541  -0.5961219507
	    H    -0.2128041652   1.0648408257   1.0591659644
	    C    -0.3120409081   0.6887026908   0.0397426289
	    H    -0.2379587475  -1.3526487169   0.6560859786
	    H     0.1791862832  -1.1038272642  -1.0234220142
	    C     0.3088069862  -0.6940645206  -0.0200856003
	    H     2.2066776050  -1.6894218272   0.3126394656
	    H     1.9251911423  -0.2965813598   1.3511444207
	    H     2.3461156768  -0.0605334856  -0.3392067917
	    C     1.7807497002  -0.6893488364   0.3461490110
	Saving final (previous) structure.
			--------------------------
			 OPTKING Finished Execution 
			--------------------------

    Final optimized geometry and variables:
    Molecular point group: c1
    Full point group: C1

    Geometry (in Angstrom), charge = 0, multiplicity = 1:

    H           -2.298979925107    -0.168175694393     0.047265317112
    H           -2.282825418169     1.589492303334    -0.015150928752
    H           -1.882251176837     0.673069794048    -1.448706633898
    C           -1.777172497895     0.692452631763    -0.366116183236
    H            0.253561343899     1.370671454108    -0.596121950717
    H           -0.212804165167     1.064840825657     1.059165964383
    C           -0.312040908075     0.688702690821     0.039742628855
    H           -0.237958747524    -1.352648716922     0.656085978578
    H            0.179186283156    -1.103827264246    -1.023422014179
    C            0.308806986219    -0.694064520583    -0.020085600284
    H            2.206677604977    -1.689421827167     0.312639465564
    H            1.925191142305    -0.296581359777     1.351144420744
    H            2.346115676767    -0.060533485576    -0.339206791669
    C            1.780749700217    -0.689348836427     0.346149011027

	Cleaning optimization helper files.

*** Psi4 exiting successfully. Buy a developer a beer!
