
    -----------------------------------------------------------------------
          Psi4: An Open-Source Ab Initio Electronic Structure Package
                               Psi4 1.1 release

                         Git: Rev {HEAD} add49b9 


    R. M. Parrish, L. A. Burns, D. G. A. Smith, A. C. Simmonett,
    A. E. DePrince III, E. G. Hohenstein, U. Bozkaya, A. Yu. Sokolov,
    R. Di Remigio, R. M. Richard, J. F. Gonthier, A. M. James,
    H. R. McAlexander, A. Kumar, M. Saitow, X. Wang, B. P. Pritchard,
    P. Verma, H. F. Schaefer III, K. Patkowski, R. A. King, E. F. Valeev,
    F. A. Evangelista, J. M. Turney, T. D. Crawford, and C. D. Sherrill,
    J. Chem. Theory Comput. in press (2017).
    (doi: 10.1021/acs.jctc.7b00174)

    -----------------------------------------------------------------------


    Psi4 started on: Wednesday, 14 June 2017 02:21PM

    Process ID:   7430
    PSIDATADIR: /cbio/jclab/home/chayas/anaconda/envs/py35/share/psi4
    Memory:     500.0 MiB
    Threads:    1
    
  ==> Input File <==

--------------------------------------------------------------------------

memory 5000 mb

molecule butane {
  symmetry C1
  0 1 
  H      1.879   2.329   -9.382
  H      1.969   0.602   -9.630
  H      1.544   1.238   -8.060
  C      2.142   1.395   -8.932
  H      4.169   2.051   -9.210
  H      3.731   1.788   -7.539
  C      3.631   1.416   -8.537
  H      3.665   -0.647   -7.940
  H      4.104   -0.384   -9.610
  C      4.203   -0.012   -8.612
  H      6.088   -0.983   -8.270
  H      5.791   0.381   -7.220
  H      6.230   0.644   -8.890
  C      5.691   0.009   -8.218
  units Angstrom
}

dih_string = "10 7 4 3 90"
set optking fixed_dihedral = $dih_string

optimize('MP2/aug-cc-pvtz')
--------------------------------------------------------------------------

  Memory set to   4.657 GiB by Python driver.
gradient() will perform analytic gradient computation.

*** tstart() called on gpu-1-8.local
*** at Wed Jun 14 14:21:22 2017

    SCF Algorithm Type (re)set to DF.

*** tstart() called on gpu-1-8.local
*** at Wed Jun 14 14:21:22 2017

   => Loading Basis Set <=

    Name: AUG-CC-PVTZ
    Role: ORBITAL
    Keyword: BASIS
    atoms 1-3, 5-6, 8-9, 11-13 entry H          line    34 file /cbio/jclab/home/chayas/anaconda/envs/py35/share/psi4/basis/aug-cc-pvtz.gbs 
    atoms 4, 7, 10, 14         entry C          line   221 file /cbio/jclab/home/chayas/anaconda/envs/py35/share/psi4/basis/aug-cc-pvtz.gbs 


         ---------------------------------------------------------
                                   SCF
            by Justin Turney, Rob Parrish, and Andy Simmonett
                              RHF Reference
                        1 Threads,   4768 MiB Core
         ---------------------------------------------------------

  ==> Geometry <==

    Molecular point group: c1
    Full point group: C1

    Geometry (in Angstrom), charge = 0, multiplicity = 1:

       Center              X                  Y                   Z               Mass       
    ------------   -----------------  -----------------  -----------------  -----------------
           H         -2.037793382205     1.627017352882    -0.807189264913     1.007825032070
           H         -1.947793382205    -0.099982647118    -1.055189264913     1.007825032070
           H         -2.372793382205     0.536017352882     0.514810735087     1.007825032070
           C         -1.774793382205     0.693017352882    -0.357189264913    12.000000000000
           H          0.252206617795     1.349017352882    -0.635189264913     1.007825032070
           H         -0.185793382205     1.086017352882     1.035810735087     1.007825032070
           C         -0.285793382205     0.714017352882     0.037810735087    12.000000000000
           H         -0.251793382205    -1.348982647118     0.634810735087     1.007825032070
           H          0.187206617795    -1.085982647118    -1.035189264913     1.007825032070
           C          0.286206617795    -0.713982647118    -0.037189264913    12.000000000000
           H          2.171206617795    -1.684982647118     0.304810735087     1.007825032070
           H          1.874206617795    -0.320982647118     1.354810735087     1.007825032070
           H          2.313206617795    -0.057982647118    -0.315189264913     1.007825032070
           C          1.774206617795    -0.692982647118     0.356810735087    12.000000000000

  Running in c1 symmetry.

  Rotational constants: A =      0.76947  B =      0.12465  C =      0.11638 [cm^-1]
  Rotational constants: A =  23068.20474  B =   3736.87724  C =   3488.99951 [MHz]
  Nuclear repulsion =  131.838077246271837

  Charge       = 0
  Multiplicity = 1
  Electrons    = 34
  Nalpha       = 17
  Nbeta        = 17

  ==> Algorithm <==

  SCF Algorithm Type is DF.
  DIIS enabled.
  MOM disabled.
  Fractional occupation disabled.
  Guess Type is SAD.
  Energy threshold   = 1.00e-10
  Density threshold  = 1.00e-10
  Integral threshold = 0.00e+00

  ==> Primary Basis <==

  Basis Set: AUG-CC-PVTZ
    Blend: AUG-CC-PVTZ
    Number of shells: 146
    Number of basis function: 414
    Number of Cartesian functions: 470
    Spherical Harmonics?: true
    Max angular momentum: 3

   => Loading Basis Set <=

    Name: (AUG-CC-PVTZ AUX)
    Role: JKFIT
    Keyword: DF_BASIS_SCF
    atoms 1-3, 5-6, 8-9, 11-13 entry H          line    69 file /cbio/jclab/home/chayas/anaconda/envs/py35/share/psi4/basis/aug-cc-pvtz-jkfit.gbs 
    atoms 4, 7, 10, 14         entry C          line   161 file /cbio/jclab/home/chayas/anaconda/envs/py35/share/psi4/basis/aug-cc-pvtz-jkfit.gbs 

  ==> Pre-Iterations <==

   -------------------------------------------------------
    Irrep   Nso     Nmo     Nalpha   Nbeta   Ndocc  Nsocc
   -------------------------------------------------------
     A        414     414       0       0       0       0
   -------------------------------------------------------
    Total     414     414      17      17      17       0
   -------------------------------------------------------

  ==> Integral Setup <==

  ==> DFJK: Density-Fitted J/K Matrices <==

    J tasked:                  Yes
    K tasked:                  Yes
    wK tasked:                  No
    OpenMP threads:              1
    Integrals threads:           1
    Memory (MB):              3576
    Algorithm:                Core
    Integral Cache:           NONE
    Schwarz Cutoff:          1E-12
    Fitting Condition:       1E-12

   => Auxiliary Basis Set <=

  Basis Set: (AUG-CC-PVTZ AUX)
    Blend: AUG-CC-PVTZ-JKFIT
    Number of shells: 260
    Number of basis function: 876
    Number of Cartesian functions: 1074
    Spherical Harmonics?: true
    Max angular momentum: 4

  Minimum eigenvalue in the overlap matrix is 8.5723981851E-06.
  Using Symmetric Orthogonalization.

  SCF Guess: Superposition of Atomic Densities via on-the-fly atomic UHF.

  ==> Iterations <==

                           Total Energy        Delta E     RMS |[F,P]|

   @DF-RHF iter   0:  -158.86790446425516   -1.58868e+02   9.29360e-03 
   @DF-RHF iter   1:  -157.22966148329036    1.63824e+00   9.98416e-04 
   @DF-RHF iter   2:  -157.33441920306109   -1.04758e-01   3.50178e-04 DIIS
   @DF-RHF iter   3:  -157.34774774959234   -1.33285e-02   1.20024e-04 DIIS
   @DF-RHF iter   4:  -157.34993612297191   -2.18837e-03   1.94925e-05 DIIS
   @DF-RHF iter   5:  -157.35000778706643   -7.16641e-05   6.38364e-06 DIIS
   @DF-RHF iter   6:  -157.35001387687760   -6.08981e-06   1.43507e-06 DIIS
   @DF-RHF iter   7:  -157.35001423347668   -3.56599e-07   2.09520e-07 DIIS
   @DF-RHF iter   8:  -157.35001424365913   -1.01824e-08   3.18694e-08 DIIS
   @DF-RHF iter   9:  -157.35001424389020   -2.31068e-10   6.79670e-09 DIIS
   @DF-RHF iter  10:  -157.35001424390197   -1.17666e-11   1.72648e-09 DIIS
   @DF-RHF iter  11:  -157.35001424390208   -1.13687e-13   4.78260e-10 DIIS
   @DF-RHF iter  12:  -157.35001424390015    1.93268e-12   1.35064e-10 DIIS
   @DF-RHF iter  13:  -157.35001424390458   -4.43379e-12   3.22416e-11 DIIS

  ==> Post-Iterations <==

    Orbital Energies (a.u.)
    -----------------------

    Doubly Occupied:                                                      

       1A    -11.207110     2A    -11.206054     3A    -11.198419  
       4A    -11.197741     5A     -1.070707     6A     -0.981070  
       7A     -0.861426     8A     -0.795247     9A     -0.646965  
      10A     -0.587514    11A     -0.576359    12A     -0.571279  
      13A     -0.513182    14A     -0.503948    15A     -0.474213  
      16A     -0.468718    17A     -0.441085  

    Virtual:                                                              

      18A      0.032303    19A      0.037460    20A      0.039434  
      21A      0.040610    22A      0.057682    23A      0.058558  
      24A      0.060005    25A      0.060933    26A      0.080240  
      27A      0.082826    28A      0.100560    29A      0.112611  
      30A      0.122949    31A      0.130605    32A      0.137210  
      33A      0.142114    34A      0.142668    35A      0.145924  
      36A      0.148324    37A      0.160217    38A      0.163788  
      39A      0.166567    40A      0.171486    41A      0.201568  
      42A      0.205488    43A      0.212827    44A      0.228842  
      45A      0.244225    46A      0.249879    47A      0.253621  
      48A      0.268730    49A      0.278299    50A      0.283220  
      51A      0.286754    52A      0.313649    53A      0.318431  
      54A      0.330057    55A      0.337619    56A      0.345220  
      57A      0.354568    58A      0.358238    59A      0.358445  
      60A      0.365521    61A      0.372452    62A      0.373200  
      63A      0.381392    64A      0.386586    65A      0.390458  
      66A      0.391234    67A      0.398051    68A      0.401772  
      69A      0.405942    70A      0.412024    71A      0.419223  
      72A      0.429993    73A      0.443556    74A      0.449286  
      75A      0.452010    76A      0.461885    77A      0.462154  
      78A      0.464904    79A      0.472907    80A      0.485405  
      81A      0.488348    82A      0.497030    83A      0.501779  
      84A      0.505749    85A      0.514163    86A      0.515759  
      87A      0.519563    88A      0.532113    89A      0.536980  
      90A      0.542692    91A      0.548636    92A      0.555736  
      93A      0.569340    94A      0.572611    95A      0.580996  
      96A      0.590624    97A      0.607535    98A      0.609532  
      99A      0.611983   100A      0.633872   101A      0.640544  
     102A      0.659990   103A      0.678244   104A      0.682327  
     105A      0.698406   106A      0.719519   107A      0.760757  
     108A      0.776874   109A      0.799072   110A      0.812284  
     111A      0.820625   112A      0.828267   113A      0.835791  
     114A      0.846175   115A      0.848010   116A      0.860583  
     117A      0.867457   118A      0.875376   119A      0.881495  
     120A      0.889764   121A      0.895752   122A      0.903433  
     123A      0.910523   124A      0.922162   125A      0.926950  
     126A      0.931029   127A      0.933838   128A      0.937409  
     129A      0.946206   130A      0.962566   131A      0.963399  
     132A      0.973912   133A      0.979372   134A      0.987873  
     135A      0.995051   136A      1.017591   137A      1.026286  
     138A      1.032852   139A      1.047446   140A      1.068575  
     141A      1.081649   142A      1.084491   143A      1.089698  
     144A      1.106092   145A      1.111548   146A      1.117872  
     147A      1.126460   148A      1.135366   149A      1.148791  
     150A      1.155410   151A      1.159065   152A      1.173379  
     153A      1.179670   154A      1.190258   155A      1.200071  
     156A      1.218912   157A      1.226864   158A      1.234041  
     159A      1.243076   160A      1.250361   161A      1.262288  
     162A      1.268701   163A      1.275030   164A      1.281441  
     165A      1.298138   166A      1.305050   167A      1.317590  
     168A      1.325858   169A      1.339135   170A      1.358691  
     171A      1.370464   172A      1.388747   173A      1.407286  
     174A      1.417007   175A      1.431745   176A      1.445421  
     177A      1.461524   178A      1.481072   179A      1.501110  
     180A      1.511064   181A      1.521785   182A      1.524358  
     183A      1.538606   184A      1.555946   185A      1.569408  
     186A      1.584919   187A      1.598477   188A      1.611943  
     189A      1.636630   190A      1.643115   191A      1.652566  
     192A      1.661538   193A      1.674266   194A      1.694199  
     195A      1.695763   196A      1.700491   197A      1.713080  
     198A      1.719704   199A      1.731239   200A      1.741996  
     201A      1.745297   202A      1.759540   203A      1.765647  
     204A      1.772696   205A      1.780707   206A      1.787111  
     207A      1.799396   208A      1.808590   209A      1.822008  
     210A      1.857517   211A      1.870301   212A      1.873665  
     213A      1.891238   214A      1.904540   215A      1.917282  
     216A      1.929620   217A      1.962714   218A      1.970858  
     219A      1.992062   220A      2.000219   221A      2.002518  
     222A      2.017596   223A      2.030746   224A      2.042224  
     225A      2.047374   226A      2.063415   227A      2.086865  
     228A      2.092753   229A      2.109076   230A      2.159873  
     231A      2.169585   232A      2.193454   233A      2.198788  
     234A      2.204462   235A      2.233745   236A      2.260682  
     237A      2.266827   238A      2.285010   239A      2.292895  
     240A      2.309604   241A      2.331850   242A      2.339234  
     243A      2.341297   244A      2.365036   245A      2.368035  
     246A      2.378011   247A      2.413233   248A      2.445060  
     249A      2.462729   250A      2.480812   251A      2.497968  
     252A      2.552012   253A      2.602337   254A      2.613209  
     255A      2.628469   256A      2.667339   257A      2.756432  
     258A      2.889654   259A      2.949962   260A      3.015459  
     261A      3.224807   262A      3.247331   263A      3.310086  
     264A      3.360247   265A      3.393354   266A      3.424243  
     267A      3.444834   268A      3.461523   269A      3.464775  
     270A      3.486768   271A      3.528823   272A      3.556598  
     273A      3.565170   274A      3.576849   275A      3.598092  
     276A      3.605518   277A      3.629789   278A      3.668848  
     279A      3.684498   280A      3.695638   281A      3.702565  
     282A      3.712379   283A      3.738503   284A      3.742777  
     285A      3.759782   286A      3.775554   287A      3.779992  
     288A      3.798713   289A      3.822778   290A      3.830298  
     291A      3.845994   292A      3.868732   293A      3.877635  
     294A      3.887113   295A      3.912798   296A      3.924086  
     297A      3.953509   298A      3.972084   299A      3.977301  
     300A      3.989457   301A      4.010457   302A      4.016905  
     303A      4.026569   304A      4.027840   305A      4.051920  
     306A      4.062349   307A      4.077312   308A      4.089513  
     309A      4.135997   310A      4.170329   311A      4.191023  
     312A      4.202385   313A      4.231787   314A      4.245177  
     315A      4.251860   316A      4.274073   317A      4.286071  
     318A      4.296102   319A      4.321175   320A      4.327910  
     321A      4.343131   322A      4.379058   323A      4.383618  
     324A      4.412675   325A      4.443994   326A      4.454728  
     327A      4.521053   328A      4.545544   329A      4.571863  
     330A      4.590019   331A      4.619749   332A      4.664467  
     333A      4.676527   334A      4.692037   335A      4.714735  
     336A      4.732720   337A      4.742994   338A      4.751322  
     339A      4.774516   340A      4.789205   341A      4.809965  
     342A      4.866886   343A      4.869575   344A      4.887311  
     345A      4.893129   346A      4.934361   347A      4.948565  
     348A      4.960745   349A      4.982982   350A      5.009494  
     351A      5.042406   352A      5.065316   353A      5.083274  
     354A      5.101026   355A      5.135349   356A      5.161101  
     357A      5.172789   358A      5.191952   359A      5.221404  
     360A      5.235415   361A      5.252837   362A      5.275085  
     363A      5.284527   364A      5.312038   365A      5.333252  
     366A      5.335164   367A      5.390410   368A      5.391423  
     369A      5.437717   370A      5.457242   371A      5.463129  
     372A      5.467675   373A      5.501354   374A      5.528242  
     375A      5.583903   376A      5.605590   377A      5.609928  
     378A      5.660960   379A      5.674043   380A      5.681154  
     381A      5.701901   382A      5.757326   383A      5.762828  
     384A      5.793580   385A      5.815703   386A      5.856290  
     387A      5.900330   388A      5.927679   389A      5.967011  
     390A      6.021839   391A      6.124156   392A      6.151467  
     393A      6.174089   394A      6.213524   395A      6.229717  
     396A      6.264985   397A      6.270877   398A      6.329185  
     399A      6.332550   400A      6.362416   401A      6.394575  
     402A      6.462254   403A      6.560386   404A      6.594984  
     405A      6.746048   406A      6.784537   407A      6.834021  
     408A      6.855913   409A      6.858542   410A      6.983150  
     411A     18.127611   412A     18.329986   413A     18.854311  
     414A     19.201204  

    Final Occupation by Irrep:
              A 
    DOCC [    17 ]

  Energy converged.

  @DF-RHF Final Energy:  -157.35001424390458

   => Energetics <=

    Nuclear Repulsion Energy =            131.8380772462718369
    One-Electron Energy =                -471.7741101151691510
    Two-Electron Energy =                 182.5860186249927324
    DFT Exchange-Correlation Energy =       0.0000000000000000
    Empirical Dispersion Energy =           0.0000000000000000
    PCM Polarization Energy =               0.0000000000000000
    EFP Energy =                            0.0000000000000000
    Total Energy =                       -157.3500142439045817



Properties will be evaluated at   0.000000,   0.000000,   0.000000 Bohr

Properties computed using the SCF density matrix

  Nuclear Dipole Moment: (a.u.)
     X:     0.0019      Y:    -0.0008      Z:    -0.0027

  Electronic Dipole Moment: (a.u.)
     X:    -0.0023      Y:     0.0004      Z:     0.0049

  Dipole Moment: (a.u.)
     X:    -0.0003      Y:    -0.0004      Z:     0.0021     Total:     0.0022

  Dipole Moment: (Debye)
     X:    -0.0009      Y:    -0.0010      Z:     0.0054     Total:     0.0056


*** tstop() called on gpu-1-8.local at Wed Jun 14 14:22:58 2017
Module time:
	user time   =      95.55 seconds =       1.59 minutes
	system time =       0.65 seconds =       0.01 minutes
	total time  =         96 seconds =       1.60 minutes
Total time:
	user time   =      95.56 seconds =       1.59 minutes
	system time =       0.65 seconds =       0.01 minutes
	total time  =         96 seconds =       1.60 minutes

  //>>>>>>>>>>>>>>>>>>>>>>>>>>>>>>>>>>>//
  //               DFMP2               //
  //<<<<<<<<<<<<<<<<<<<<<<<<<<<<<<<<<<<//

   => Loading Basis Set <=

    Name: (AUG-CC-PVTZ AUX)
    Role: RIFIT
    Keyword: DF_BASIS_MP2
    atoms 1-3, 5-6, 8-9, 11-13 entry H          line    29 file /cbio/jclab/home/chayas/anaconda/envs/py35/share/psi4/basis/aug-cc-pvtz-ri.gbs 
    atoms 4, 7, 10, 14         entry C          line   147 file /cbio/jclab/home/chayas/anaconda/envs/py35/share/psi4/basis/aug-cc-pvtz-ri.gbs 

	 --------------------------------------------------------
	                          DF-MP2                         
	      2nd-Order Density-Fitted Moller-Plesset Theory     
	              RMP2 Wavefunction,   1 Threads             
	                                                         
	        Rob Parrish, Justin Turney, Andy Simmonett,      
	           Ed Hohenstein, and C. David Sherrill          
	 --------------------------------------------------------

   => Auxiliary Basis Set <=

  Basis Set: (AUG-CC-PVTZ AUX)
    Blend: AUG-CC-PVTZ-RI
    Number of shells: 252
    Number of basis function: 884
    Number of Cartesian functions: 1094
    Spherical Harmonics?: true
    Max angular momentum: 4

	 --------------------------------------------------------
	                 NBF =   414, NAUX =   884
	 --------------------------------------------------------
	   CLASS    FOCC     OCC    AOCC    AVIR     VIR    FVIR
	   PAIRS       0      17      17     397     397       0
	 --------------------------------------------------------


         ------------------------------------------------------------
                                     CPHF                           
                                  Rob Parrish                       
         ------------------------------------------------------------

  ==> Geometry <==

    Molecular point group: c1
    Full point group: C1

    Geometry (in Angstrom), charge = 0, multiplicity = 1:

       Center              X                  Y                   Z               Mass       
    ------------   -----------------  -----------------  -----------------  -----------------
           H         -2.037793382205     1.627017352882    -0.807189264913     1.007825032070
           H         -1.947793382205    -0.099982647118    -1.055189264913     1.007825032070
           H         -2.372793382205     0.536017352882     0.514810735087     1.007825032070
           C         -1.774793382205     0.693017352882    -0.357189264913    12.000000000000
           H          0.252206617795     1.349017352882    -0.635189264913     1.007825032070
           H         -0.185793382205     1.086017352882     1.035810735087     1.007825032070
           C         -0.285793382205     0.714017352882     0.037810735087    12.000000000000
           H         -0.251793382205    -1.348982647118     0.634810735087     1.007825032070
           H          0.187206617795    -1.085982647118    -1.035189264913     1.007825032070
           C          0.286206617795    -0.713982647118    -0.037189264913    12.000000000000
           H          2.171206617795    -1.684982647118     0.304810735087     1.007825032070
           H          1.874206617795    -0.320982647118     1.354810735087     1.007825032070
           H          2.313206617795    -0.057982647118    -0.315189264913     1.007825032070
           C          1.774206617795    -0.692982647118     0.356810735087    12.000000000000

  Nuclear repulsion =  131.838077246271837
  Reference energy  = -157.350014243904582

  ==> Basis Set <==

  Basis Set: AUG-CC-PVTZ
    Blend: AUG-CC-PVTZ
    Number of shells: 146
    Number of basis function: 414
    Number of Cartesian functions: 470
    Spherical Harmonics?: true
    Max angular momentum: 3

  ==> CGRSolver (by Rob Parrish) <==

   Number of roots    =         1
   Preconditioning    =    JACOBI
   Convergence cutoff =     1E-06
   Maximum iterations =       100

  ==> CPHFRHamiltonian (by Rob Parrish) <== 

  ==> DFJK: Density-Fitted J/K Matrices <==

    J tasked:                  Yes
    K tasked:                  Yes
    wK tasked:                  No
    OpenMP threads:              1
    Integrals threads:           1
    Memory (MB):              3576
    Algorithm:                Core
    Integral Cache:           NONE
    Schwarz Cutoff:          1E-12
    Fitting Condition:       1E-12

   => Auxiliary Basis Set <=

  Basis Set: (AUG-CC-PVTZ AUX)
    Blend: AUG-CC-PVTZ-JKFIT
    Number of shells: 260
    Number of basis function: 876
    Number of Cartesian functions: 1074
    Spherical Harmonics?: true
    Max angular momentum: 4

  ==> CPHF Iterations <==

  => Iterations <=

             Iter  Converged  Remaining    Residual
  CGR           1          0          1   8.165E-02
  CGR           2          0          1   1.309E-02
  CGR           3          0          1   3.416E-03
  CGR           4          0          1   8.060E-04
  CGR           5          0          1   1.189E-04
  CGR           6          0          1   2.153E-05
  CGR           7          0          1   3.891E-06
  CGR           8          1          0   9.190E-07

    CGRSolver converged.

  ==> DFCorrGrad: Density-Fitted Correlated Gradients <==

    OpenMP threads:              1
    Integrals threads:           1
    Memory (MB):              3576
    Schwarz Cutoff:          0E+00
    Fitting Condition:       1E-12

   => Auxiliary Basis Set <=

  Basis Set: (AUG-CC-PVTZ AUX)
    Blend: AUG-CC-PVTZ-JKFIT
    Number of shells: 260
    Number of basis function: 876
    Number of Cartesian functions: 1074
    Spherical Harmonics?: true
    Max angular momentum: 4

	-----------------------------------------------------------
	 ==================> DF-MP2 Energies <==================== 
	-----------------------------------------------------------
	 Reference Energy          =    -157.3500142439045817 [Eh]
	 Singles Energy            =      -0.0000000000000000 [Eh]
	 Same-Spin Energy          =      -0.1654331232713973 [Eh]
	 Opposite-Spin Energy      =      -0.6391105454502845 [Eh]
	 Correlation Energy        =      -0.8045436687216818 [Eh]
	 Total Energy              =    -158.1545579126262737 [Eh]
	-----------------------------------------------------------
	 ================> DF-SCS-MP2 Energies <================== 
	-----------------------------------------------------------
	 SCS Same-Spin Scale       =       0.3333333333333333 [-]
	 SCS Opposite-Spin Scale   =       1.2000000000000000 [-]
	 SCS Same-Spin Energy      =      -0.0551443744237991 [Eh]
	 SCS Opposite-Spin Energy  =      -0.7669326545403413 [Eh]
	 SCS Correlation Energy    =      -0.8220770289641404 [Eh]
	 SCS Total Energy          =    -158.1720912728687267 [Eh]
	-----------------------------------------------------------


  -Total Gradient:
     Atom            X                  Y                   Z
    ------   -----------------  -----------------  -----------------
       1        0.007913942060    -0.009402032699     0.004404347746
       2        0.004288298100     0.006942586900     0.008153514714
       3        0.009678898158     0.002840182578    -0.007645283671
       4       -0.022380887934    -0.005744605907    -0.006415288418
       5       -0.008502959829    -0.007078515724     0.005967897695
       6       -0.004130927430    -0.006197307257    -0.010685410641
       7        0.018892322077     0.030369039200     0.011417381821
       8        0.008231285748     0.008721969610    -0.006370694419
       9        0.003365641186     0.005073775956     0.011494845344
      10       -0.022740134019    -0.031244475522    -0.012245669864
      11       -0.008433092117     0.010038451158    -0.000647189444
      12       -0.003333019703    -0.003982089407    -0.010989954417
      13       -0.007522910270    -0.006629668370     0.006251127104
      14        0.024673543975     0.006292689485     0.007310376451


*** tstop() called on gpu-1-8.local at Wed Jun 14 14:29:28 2017
Module time:
	user time   =     480.77 seconds =       8.01 minutes
	system time =       4.45 seconds =       0.07 minutes
	total time  =        486 seconds =       8.10 minutes
Total time:
	user time   =     480.78 seconds =       8.01 minutes
	system time =       4.45 seconds =       0.07 minutes
	total time  =        486 seconds =       8.10 minutes

			-----------------------------------------
			 OPTKING 2.0: for geometry optimizations 
			  - R.A. King,  Bethel University        
			-----------------------------------------

	Internal coordinates to be generated automatically.
	Detected frag 1 with atoms:  1 2 3 4 5 6 7 8 9 10 11 12 13 14
	---Fragment 1 Bond Connectivity---
	 1 : 4
	 2 : 4
	 3 : 4
	 4 : 1 2 3 7
	 5 : 7
	 6 : 7
	 7 : 4 5 6 10
	 8 : 10
	 9 : 10
	 10 : 7 8 9 14
	 11 : 14
	 12 : 14
	 13 : 14
	 14 : 10 11 12 13

	Assuming in current code that numbering for constraints corresponds to unified fragment.
	Fixed dihedral atom list: 
	    10     7     4     3
	---Fragment 1 Geometry and Gradient---
	 H          -3.8508714078        3.0746172104       -1.5253666481
	 H          -3.6807960558       -0.1889398211       -1.9940187290
	 H          -4.4839296623        1.0129259994        0.9728512996
	 C          -3.3538734348        1.3096130023       -0.6749898883
	 H           0.4766014365        2.5492733455       -1.2003337532
	 H          -0.3510986097        2.0522753725        1.9573986148
	 C          -0.5400712230        1.3492972511        0.0714519342
	 H          -0.4758205344       -2.5492077611        1.1996184355
	 H           0.3537692379       -2.0522097881       -1.9562242064
	 C           0.5408521251       -1.3492316667       -0.0702775258
	 H           4.1029858855       -3.1841557417        0.5760088117
	 H           3.5417372241       -0.6065692965        2.5602212512
	 H           4.3713269964       -0.1095713235       -0.5956213907
	 C           3.3527646108       -1.3095474179        0.6742745706
	             0.0079139421       -0.0094020327        0.0044043477
	             0.0042882981        0.0069425869        0.0081535147
	             0.0096788982        0.0028401826       -0.0076452837
	            -0.0223808879       -0.0057446059       -0.0064152884
	            -0.0085029598       -0.0070785157        0.0059678977
	            -0.0041309274       -0.0061973073       -0.0106854106
	             0.0188923221        0.0303690392        0.0114173818
	             0.0082312857        0.0087219696       -0.0063706944
	             0.0033656412        0.0050737760        0.0114948453
	            -0.0227401340       -0.0312444755       -0.0122456699
	            -0.0084330921        0.0100384512       -0.0006471894
	            -0.0033330197       -0.0039820894       -0.0109899544
	            -0.0075229103       -0.0066296684        0.0062511271
	             0.0246735440        0.0062926895        0.0073103765

	Previous optimization step data not found.  Starting new optimization.

	---Fragment 1 Intrafragment Coordinates---
	 - Coordinate -           - BOHR/RAD -       - ANG/DEG -
	 R(1,4)           =         2.021234	       1.069591
	 R(2,4)           =         2.022962	       1.070505
	 R(3,4)           =         2.020008	       1.068942
	 R(4,7)           =         2.911397	       1.540645
	 R(5,7)           =         2.022623	       1.070326
	 R(6,7)           =         2.021555	       1.069761
	 R(7,10)          =         2.910419	       1.540128
	 R(8,10)          =         2.021436	       1.069698
	 R(9,10)          =         2.021379	       1.069668
	 R(10,14)         =         2.909087	       1.539422
	 R(11,14)         =         2.021545	       1.069756
	 R(12,14)         =         2.021555	       1.069761
	 R(13,14)         =         2.022387	       1.070201
	 B(1,4,2)         =         1.910073	     109.439130
	 B(1,4,3)         =         1.911240	     109.505972
	 B(1,4,7)         =         1.910927	     109.488050
	 B(2,4,3)         =         1.909952	     109.432186
	 B(2,4,7)         =         1.910764	     109.478726
	 B(3,4,7)         =         1.910843	     109.483237
	 B(4,7,5)         =         1.909937	     109.431343
	 B(4,7,6)         =         1.911630	     109.528316
	 B(4,7,10)        =         1.911154	     109.501062
	 B(5,7,6)         =         1.910605	     109.469614
	 B(5,7,10)        =         1.910047	     109.437654
	 B(6,7,10)        =         1.910425	     109.459295
	 B(7,10,8)        =         1.910303	     109.452301
	 B(7,10,9)        =         1.910824	     109.482155
	 B(7,10,14)       =         1.911213	     109.504437
	 B(8,10,9)        =         1.910417	     109.458846
	 B(8,10,14)       =         1.910766	     109.478806
	 B(9,10,14)       =         1.910276	     109.450772
	 B(10,14,11)      =         1.910943	     109.488965
	 B(10,14,12)      =         1.911204	     109.503926
	 B(10,14,13)      =         1.911557	     109.524173
	 B(11,14,12)      =         1.910410	     109.458432
	 B(11,14,13)      =         1.910054	     109.438058
	 B(12,14,13)      =         1.909629	     109.413709
	 D(1,4,7,5)       =        -0.523400	     -29.988614
	 D(1,4,7,6)       =         1.571144	      90.019938
	 D(1,4,7,10)      =        -2.616970	    -149.941354
	 D(2,4,7,5)       =         1.570569	      89.986984
	 D(2,4,7,6)       =        -2.618072	    -150.004464
	 D(2,4,7,10)      =        -0.523001	     -29.965757
	 D(3,4,7,5)       =        -2.618847	    -150.048870
	 D(3,4,7,6)       =        -0.524302	     -30.040318
	 D(3,4,7,10)      =         1.570768	      89.998390
	 D(4,7,10,8)      =        -1.047368	     -60.009777
	 D(4,7,10,9)      =         1.046677	      59.970178
	 D(4,7,10,14)     =         3.141107	     179.972182
	 D(5,7,10,8)      =        -3.140871	    -179.958653
	 D(5,7,10,9)      =        -1.046826	     -59.978698
	 D(5,7,10,14)     =         1.047604	      60.023306
	 D(6,7,10,8)      =         1.048439	      60.071149
	 D(6,7,10,9)      =        -3.140701	    -179.948896
	 D(6,7,10,14)     =        -1.046271	     -59.946893
	 D(7,10,14,11)    =         3.141408	     179.989448
	 D(7,10,14,12)    =         1.046747	      59.974196
	 D(7,10,14,13)    =        -1.047335	     -60.007849
	 D(8,10,14,11)    =         1.046982	      59.987626
	 D(8,10,14,12)    =        -1.047680	     -60.027626
	 D(8,10,14,13)    =         3.141424	     179.990329
	 D(9,10,14,11)    =        -1.047012	     -59.989345
	 D(9,10,14,12)    =         3.141512	     179.995403
	 D(9,10,14,13)    =         1.047431	      60.013359

	Current energy   :      -158.1545579126

	Generating empirical Hessian (Schlegel '84) for each fragment.
	Adding user-defined constraint: Fragment 1; Coordinate 46:
		Value =     1.570768; Fixed value    =     1.570796
		Force =     0.000014; Force constant =     0.500000
	Removing off-diagonal coupling between coordinate 46 and others.
	Taking RFO optimization step.
	Going to follow RFO solution 1.
	Using RFO vector 1.

	Determining step-restricting scale parameter for RS-RFO.
	Maximum step size allowed    0.10000

	 Iter      |step|        alpha        rfo_root  
	------------------------------------------------
	    0     0.20488       1.00000           1
	    1     0.16025       5.19994           1
	    2     0.12620      15.69058           1
	    3     0.10738      28.88086           1
	    4     0.10083      35.89626           1
	    5     0.10001      36.89318           1
	    6     0.10000      36.90848           1
	------------------------------------------------
	Norm of target step-size    0.10000
	Projected energy change by RFO approximation:        -0.0045706625

	Back-transformation to cartesian coordinates...
	Could not converge backtransformation.
	Using first guess instead.

	--- Internal Coordinate Step in ANG or DEG, aJ/ANG or AJ/DEG ---
	 ---------------------------------------------------------------------------
	   Coordinate                Previous        Force       Change         New 
	   ----------                --------       ------       ------       ------
	    1 R(1,4)          =      1.069591     0.098940     0.011966     1.081557
	    2 R(2,4)          =      1.070505     0.091880     0.011235     1.081741
	    3 R(3,4)          =      1.068942     0.099429     0.012007     1.080949
	    4 R(4,7)          =      1.540645    -0.007756    -0.001035     1.539610
	    5 R(5,7)          =      1.070326     0.100727     0.012158     1.082484
	    6 R(6,7)          =      1.069761     0.103065     0.012422     1.082183
	    7 R(7,10)         =      1.540128    -0.074064    -0.010480     1.529647
	    8 R(8,10)         =      1.069698     0.109737     0.013218     1.082916
	    9 R(9,10)         =      1.069668     0.105461     0.012702     1.082369
	   10 R(10,14)        =      1.539422    -0.047580    -0.006787     1.532635
	   11 R(11,14)        =      1.069756     0.102218     0.012350     1.082106
	   12 R(12,14)        =      1.069761     0.098445     0.011902     1.081663
	   13 R(13,14)        =      1.070201     0.095963     0.011613     1.081814
	   14 B(1,4,2)        =    109.439130    -0.000288    -0.667865   108.771264
	   15 B(1,4,3)        =    109.505972    -0.000349    -0.856407   108.649566
	   16 B(1,4,7)        =    109.488050     0.000439     1.010191   110.498241
	   17 B(2,4,3)        =    109.432186    -0.000233    -0.521944   108.910242
	   18 B(2,4,7)        =    109.478726     0.000166     0.401459   109.880186
	   19 B(3,4,7)        =    109.483237     0.000265     0.609016   110.092253
	   20 B(4,7,5)        =    109.431343    -0.000087    -0.023686   109.407657
	   21 B(4,7,6)        =    109.528316    -0.000123    -0.129212   109.399104
	   22 B(4,7,10)       =    109.501062     0.000711     1.500408   111.001470
	   23 B(5,7,6)        =    109.469614     0.000004    -0.267650   109.201964
	   24 B(5,7,10)       =    109.437654    -0.000250    -0.574096   108.863558
	   25 B(6,7,10)       =    109.459295    -0.000255    -0.519219   108.940076
	   26 B(7,10,8)       =    109.452301    -0.000201    -0.403551   109.048750
	   27 B(7,10,9)       =    109.482155    -0.000245    -0.530375   108.951781
	   28 B(7,10,14)      =    109.504437     0.000669     1.408862   110.913299
	   29 B(8,10,9)       =    109.458846     0.000018    -0.203687   109.255159
	   30 B(8,10,14)      =    109.478806    -0.000136    -0.177866   109.300941
	   31 B(9,10,14)      =    109.450772    -0.000106    -0.103509   109.347263
	   32 B(10,14,11)     =    109.488965     0.000414     0.988606   110.477570
	   33 B(10,14,12)     =    109.503926     0.000135     0.301447   109.805372
	   34 B(10,14,13)     =    109.524173     0.000104     0.225336   109.749509
	   35 B(11,14,12)     =    109.458432    -0.000251    -0.565042   108.893389
	   36 B(11,14,13)     =    109.438058    -0.000239    -0.541975   108.896083
	   37 B(12,14,13)     =    109.413709    -0.000164    -0.424873   108.988837
	   38 D(1,4,7,5)      =    -29.988614     0.000003     0.010548   -29.978066
	   39 D(1,4,7,6)      =     90.019938    -0.000025    -0.409817    89.610121
	   40 D(1,4,7,10)     =   -149.941354    -0.000014    -0.197830  -150.139184
	   41 D(2,4,7,5)      =     89.986984     0.000007     0.067974    90.054958
	   42 D(2,4,7,6)      =   -150.004464    -0.000021    -0.352391  -150.356855
	   43 D(2,4,7,10)     =    -29.965757    -0.000010    -0.140403   -30.106160
	   44 D(3,4,7,5)      =   -150.048870     0.000002     0.052876  -149.995994
	   45 D(3,4,7,6)      =    -30.040318    -0.000026    -0.367489   -30.407807
	   46 D(3,4,7,10)     =     89.998390    -0.000015    -0.155502    89.842887
	   47 D(4,7,10,8)     =    -60.009777     0.000034     0.485535   -59.524242
	   48 D(4,7,10,9)     =     59.970178    -0.000023    -0.321950    59.648229
	   49 D(4,7,10,14)    =    179.972182     0.000007     0.087223   180.059404
	   50 D(5,7,10,8)     =   -179.958653    -0.000006    -0.049494  -180.008146
	   51 D(5,7,10,9)     =    -59.978698    -0.000063    -0.856978   -60.835676
	   52 D(5,7,10,14)    =     60.023306    -0.000033    -0.447806    59.575500
	   53 D(6,7,10,8)     =     60.071149     0.000064     0.927442    60.998590
	   54 D(6,7,10,9)     =   -179.948896     0.000006     0.119958  -179.828939
	   55 D(6,7,10,14)    =    -59.946893     0.000036     0.529130   -59.417763
	   56 D(7,10,14,11)   =    179.989448     0.000003     0.047147   180.036595
	   57 D(7,10,14,12)   =     59.974196    -0.000003    -0.061186    59.913009
	   58 D(7,10,14,13)   =    -60.007849     0.000009     0.135608   -59.872240
	   59 D(8,10,14,11)   =     59.987626    -0.000015    -0.217556    59.770070
	   60 D(8,10,14,12)   =    -60.027626    -0.000022    -0.325890   -60.353516
	   61 D(8,10,14,13)   =    179.990329    -0.000010    -0.129095   179.861235
	   62 D(9,10,14,11)   =    -59.989345     0.000014     0.202041   -59.787304
	   63 D(9,10,14,12)   =    179.995403     0.000007     0.093707   180.089111
	   64 D(9,10,14,13)   =     60.013359     0.000019     0.290502    60.303861
	 ---------------------------------------------------------------------------
	Successfully symmetrized geometry.
	 Forces used to impose fixed constraints are not included.
	  Forces zeroed: 46 

  ==> Convergence Check <==

  Measures of convergence in internal coordinates in au.
  Criteria marked as inactive (o), active & met (*), and active & unmet ( ).
  --------------------------------------------------------------------------------------------- ~
   Step     Total Energy     Delta E     MAX Force     RMS Force      MAX Disp      RMS Disp    ~
  --------------------------------------------------------------------------------------------- ~
    Convergence Criteria    1.00e-06 *    3.00e-04 *             o    1.20e-03 *             o  ~
  --------------------------------------------------------------------------------------------- ~
      1    -158.15455791   -1.58e+02      1.33e-02      5.63e-03 o    2.62e-02      1.25e-02 o  ~
  ---------------------------------------------------------------------------------------------

	Writing optimization data to binary file.
	Structure for next step:
	Cartesian Geometry (in Angstrom)
	    H    -2.0575337718   1.6417135928  -0.8101986363
	    H    -1.9726599171  -0.0961039730  -1.0664828575
	    H    -2.3949568464   0.5425408245   0.5179176686
	    C    -1.7813318179   0.6987738138  -0.3581568062
	    H     0.2557196290   1.3449035019  -0.6457115273
	    H    -0.1871039497   1.0816292865   1.0419075587
	    C    -0.2922936572   0.7041414283   0.0331671430
	    H    -0.2490186191  -1.3495172801   0.6450480332
	    H     0.1947050812  -1.0824025458  -1.0428673530
	    C     0.2970870413  -0.7058349975  -0.0332941792
	    H     2.1886933522  -1.6986457204   0.3079962078
	    H     1.8896531887  -0.3245574446   1.3669683821
	    H     2.3320253701  -0.0590149187  -0.3169592482
	    C     1.7789075655  -0.6983826275   0.3580159056
			--------------------------
			 OPTKING Finished Execution 
			--------------------------

    Structure for next step:
    Molecular point group: c1
    Full point group: C1

    Geometry (in Angstrom), charge = 0, multiplicity = 1:

    H           -2.058015008204     1.641973225325    -0.810101945223
    H           -1.973141153492    -0.095844340449    -1.066386166396
    H           -2.395438082797     0.542800457042     0.518014359699
    C           -1.781813054293     0.699033446338    -0.358060115090
    H            0.255238392593     1.345163134480    -0.645614836161
    H           -0.187585186095     1.081888919047     1.042004249772
    C           -0.292774893620     0.704401060858     0.033263834171
    H           -0.249499855551    -1.349257647525     0.645144724329
    H            0.194223844797    -1.082142913252    -1.042770661831
    C            0.296605804872    -0.705575364945    -0.033197488080
    H            2.188212115766    -1.698386087859     0.308092898938
    H            1.889171952226    -0.324297812030     1.367065073216
    H            2.331544133660    -0.058755286173    -0.316862557086
    C            1.778426329082    -0.698122994927     0.358112596672

gradient() will perform analytic gradient computation.

*** tstart() called on gpu-1-8.local
*** at Wed Jun 14 14:29:28 2017

    SCF Algorithm Type (re)set to DF.

*** tstart() called on gpu-1-8.local
*** at Wed Jun 14 14:29:28 2017

   => Loading Basis Set <=

    Name: AUG-CC-PVTZ
    Role: ORBITAL
    Keyword: BASIS
    atoms 1-3, 5-6, 8-9, 11-13 entry H          line    34 file /cbio/jclab/home/chayas/anaconda/envs/py35/share/psi4/basis/aug-cc-pvtz.gbs 
    atoms 4, 7, 10, 14         entry C          line   221 file /cbio/jclab/home/chayas/anaconda/envs/py35/share/psi4/basis/aug-cc-pvtz.gbs 


         ---------------------------------------------------------
                                   SCF
            by Justin Turney, Rob Parrish, and Andy Simmonett
                              RHF Reference
                        1 Threads,   4768 MiB Core
         ---------------------------------------------------------

  ==> Geometry <==

    Molecular point group: c1
    Full point group: C1

    Geometry (in Angstrom), charge = 0, multiplicity = 1:

       Center              X                  Y                   Z               Mass       
    ------------   -----------------  -----------------  -----------------  -----------------
           H         -2.058015008204     1.641973225325    -0.810101945223     1.007825032070
           H         -1.973141153492    -0.095844340449    -1.066386166396     1.007825032070
           H         -2.395438082797     0.542800457042     0.518014359699     1.007825032070
           C         -1.781813054293     0.699033446338    -0.358060115090    12.000000000000
           H          0.255238392593     1.345163134480    -0.645614836161     1.007825032070
           H         -0.187585186095     1.081888919047     1.042004249772     1.007825032070
           C         -0.292774893620     0.704401060858     0.033263834171    12.000000000000
           H         -0.249499855551    -1.349257647525     0.645144724329     1.007825032070
           H          0.194223844797    -1.082142913252    -1.042770661831     1.007825032070
           C          0.296605804872    -0.705575364945    -0.033197488080    12.000000000000
           H          2.188212115766    -1.698386087859     0.308092898938     1.007825032070
           H          1.889171952226    -0.324297812030     1.367065073216     1.007825032070
           H          2.331544133660    -0.058755286173    -0.316862557086     1.007825032070
           C          1.778426329082    -0.698122994927     0.358112596672    12.000000000000

  Running in c1 symmetry.

  Rotational constants: A =      0.77691  B =      0.12326  C =      0.11551 [cm^-1]
  Rotational constants: A =  23291.29201  B =   3695.17561  C =   3462.80577 [MHz]
  Nuclear repulsion =  131.356396494548250

  Charge       = 0
  Multiplicity = 1
  Electrons    = 34
  Nalpha       = 17
  Nbeta        = 17

  ==> Algorithm <==

  SCF Algorithm Type is DF.
  DIIS enabled.
  MOM disabled.
  Fractional occupation disabled.
  Guess Type is READ.
  Energy threshold   = 1.00e-10
  Density threshold  = 1.00e-10
  Integral threshold = 0.00e+00

  ==> Primary Basis <==

  Basis Set: AUG-CC-PVTZ
    Blend: AUG-CC-PVTZ
    Number of shells: 146
    Number of basis function: 414
    Number of Cartesian functions: 470
    Spherical Harmonics?: true
    Max angular momentum: 3

   => Loading Basis Set <=

    Name: (AUG-CC-PVTZ AUX)
    Role: JKFIT
    Keyword: DF_BASIS_SCF
    atoms 1-3, 5-6, 8-9, 11-13 entry H          line    69 file /cbio/jclab/home/chayas/anaconda/envs/py35/share/psi4/basis/aug-cc-pvtz-jkfit.gbs 
    atoms 4, 7, 10, 14         entry C          line   161 file /cbio/jclab/home/chayas/anaconda/envs/py35/share/psi4/basis/aug-cc-pvtz-jkfit.gbs 

  Reading orbitals from file 180, no projection.

  ==> Pre-Iterations <==

   -------------------------------------------------------
    Irrep   Nso     Nmo     Nalpha   Nbeta   Ndocc  Nsocc
   -------------------------------------------------------
     A        414     414       0       0       0       0
   -------------------------------------------------------
    Total     414     414      17      17      17       0
   -------------------------------------------------------

  ==> Integral Setup <==

  ==> DFJK: Density-Fitted J/K Matrices <==

    J tasked:                  Yes
    K tasked:                  Yes
    wK tasked:                  No
    OpenMP threads:              1
    Integrals threads:           1
    Memory (MB):              3576
    Algorithm:                Core
    Integral Cache:           NONE
    Schwarz Cutoff:          1E-12
    Fitting Condition:       1E-12

   => Auxiliary Basis Set <=

  Basis Set: (AUG-CC-PVTZ AUX)
    Blend: AUG-CC-PVTZ-JKFIT
    Number of shells: 260
    Number of basis function: 876
    Number of Cartesian functions: 1074
    Spherical Harmonics?: true
    Max angular momentum: 4

  Minimum eigenvalue in the overlap matrix is 9.0040895155E-06.
  Using Symmetric Orthogonalization.

  SCF Guess: Orbitals guess was supplied from a previous computation.

  ==> Iterations <==

                           Total Energy        Delta E     RMS |[F,P]|

   @DF-RHF iter   0:  -157.27582174012693   -1.57276e+02   1.22392e-04 
   @DF-RHF iter   1:  -157.35245589871155   -7.66342e-02   5.07859e-05 
   @DF-RHF iter   2:  -157.35271885180046   -2.62953e-04   2.62565e-05 DIIS
   @DF-RHF iter   3:  -157.35277480015901   -5.59484e-05   2.84388e-06 DIIS
   @DF-RHF iter   4:  -157.35277624333747   -1.44318e-06   7.68801e-07 DIIS
   @DF-RHF iter   5:  -157.35277633218061   -8.88431e-08   2.57815e-07 DIIS
   @DF-RHF iter   6:  -157.35277634244687   -1.02663e-08   4.33422e-08 DIIS
   @DF-RHF iter   7:  -157.35277634287058   -4.23711e-10   6.53865e-09 DIIS
   @DF-RHF iter   8:  -157.35277634287954   -8.95284e-12   1.29578e-09 DIIS
   @DF-RHF iter   9:  -157.35277634287937    1.70530e-13   3.16804e-10 DIIS
   @DF-RHF iter  10:  -157.35277634287834    1.02318e-12   7.01224e-11 DIIS

  ==> Post-Iterations <==

    Orbital Energies (a.u.)
    -----------------------

    Doubly Occupied:                                                      

       1A    -11.210362     2A    -11.209635     3A    -11.203575  
       4A    -11.203250     5A     -1.070654     6A     -0.979259  
       7A     -0.860359     8A     -0.789611     9A     -0.644484  
      10A     -0.584437    11A     -0.572692    12A     -0.572339  
      13A     -0.511654    14A     -0.500724    15A     -0.468989  
      16A     -0.464986    17A     -0.448662  

    Virtual:                                                              

      18A      0.032303    19A      0.037289    20A      0.039497  
      21A      0.040635    22A      0.057617    23A      0.058520  
      24A      0.059948    25A      0.061145    26A      0.080148  
      27A      0.082726    28A      0.100523    29A      0.112517  
      30A      0.122858    31A      0.130725    32A      0.137053  
      33A      0.141735    34A      0.142606    35A      0.145827  
      36A      0.148300    37A      0.160184    38A      0.163638  
      39A      0.166895    40A      0.171548    41A      0.201536  
      42A      0.205612    43A      0.213608    44A      0.228113  
      45A      0.242889    46A      0.248873    47A      0.252047  
      48A      0.267498    49A      0.276312    50A      0.282216  
      51A      0.285791    52A      0.313820    53A      0.318465  
      54A      0.329829    55A      0.336459    56A      0.344746  
      57A      0.353120    58A      0.357077    59A      0.358005  
      60A      0.364157    61A      0.371560    62A      0.372626  
      63A      0.380947    64A      0.386248    65A      0.390003  
      66A      0.390795    67A      0.397317    68A      0.401004  
      69A      0.403865    70A      0.411094    71A      0.418533  
      72A      0.428704    73A      0.440617    74A      0.447573  
      75A      0.450093    76A      0.459484    77A      0.460312  
      78A      0.463294    79A      0.470627    80A      0.483566  
      81A      0.486638    82A      0.496101    83A      0.500038  
      84A      0.504133    85A      0.511551    86A      0.514690  
      87A      0.518632    88A      0.531813    89A      0.537402  
      90A      0.543295    91A      0.547703    92A      0.555248  
      93A      0.568467    94A      0.571739    95A      0.581926  
      96A      0.589660    97A      0.606903    98A      0.609532  
      99A      0.609984   100A      0.632376   101A      0.640320  
     102A      0.658308   103A      0.676254   104A      0.679841  
     105A      0.698725   106A      0.717129   107A      0.760630  
     108A      0.776560   109A      0.798262   110A      0.811137  
     111A      0.820374   112A      0.827822   113A      0.834163  
     114A      0.844392   115A      0.846628   116A      0.858482  
     117A      0.866465   118A      0.874681   119A      0.879825  
     120A      0.888226   121A      0.895109   122A      0.900928  
     123A      0.909124   124A      0.919205   125A      0.924017  
     126A      0.929245   127A      0.931710   128A      0.934980  
     129A      0.944036   130A      0.959616   131A      0.960729  
     132A      0.973028   133A      0.977398   134A      0.986922  
     135A      0.994466   136A      1.016688   137A      1.024421  
     138A      1.032395   139A      1.045967   140A      1.066357  
     141A      1.079928   142A      1.082482   143A      1.088019  
     144A      1.103671   145A      1.108876   146A      1.114598  
     147A      1.123945   148A      1.131052   149A      1.147318  
     150A      1.152644   151A      1.156509   152A      1.169010  
     153A      1.174479   154A      1.187679   155A      1.194300  
     156A      1.215404   157A      1.223934   158A      1.230255  
     159A      1.241249   160A      1.247459   161A      1.259251  
     162A      1.265082   163A      1.272459   164A      1.279392  
     165A      1.293864   166A      1.298535   167A      1.313145  
     168A      1.320241   169A      1.335890   170A      1.355479  
     171A      1.366187   172A      1.383620   173A      1.401452  
     174A      1.412801   175A      1.427521   176A      1.440553  
     177A      1.456796   178A      1.479497   179A      1.499039  
     180A      1.505466   181A      1.516958   182A      1.523181  
     183A      1.537365   184A      1.554053   185A      1.568514  
     186A      1.583644   187A      1.595457   188A      1.609367  
     189A      1.628728   190A      1.639430   191A      1.647967  
     192A      1.657703   193A      1.670297   194A      1.690862  
     195A      1.694864   196A      1.698017   197A      1.710014  
     198A      1.715761   199A      1.728850   200A      1.738233  
     201A      1.745870   202A      1.758919   203A      1.763489  
     204A      1.768020   205A      1.780731   206A      1.783151  
     207A      1.792847   208A      1.806030   209A      1.817354  
     210A      1.854572   211A      1.866124   212A      1.871145  
     213A      1.887137   214A      1.897973   215A      1.912253  
     216A      1.923867   217A      1.954696   218A      1.966826  
     219A      1.985165   220A      1.992900   221A      1.994997  
     222A      2.011969   223A      2.024086   224A      2.035062  
     225A      2.038601   226A      2.058313   227A      2.082734  
     228A      2.088816   229A      2.103392   230A      2.155419  
     231A      2.162585   232A      2.186419   233A      2.195237  
     234A      2.203356   235A      2.229320   236A      2.252732  
     237A      2.261645   238A      2.274106   239A      2.286201  
     240A      2.298597   241A      2.324583   242A      2.331676  
     243A      2.337656   244A      2.344608   245A      2.360823  
     246A      2.374541   247A      2.408918   248A      2.440452  
     249A      2.463608   250A      2.479143   251A      2.500756  
     252A      2.542113   253A      2.601568   254A      2.611559  
     255A      2.630472   256A      2.662641   257A      2.767635  
     258A      2.896022   259A      2.961060   260A      3.030051  
     261A      3.228751   262A      3.242761   263A      3.302628  
     264A      3.364822   265A      3.398340   266A      3.427859  
     267A      3.447113   268A      3.458842   269A      3.464199  
     270A      3.486293   271A      3.522854   272A      3.556712  
     273A      3.565082   274A      3.582585   275A      3.600026  
     276A      3.603374   277A      3.633210   278A      3.661743  
     279A      3.677840   280A      3.688441   281A      3.704745  
     282A      3.710824   283A      3.733894   284A      3.742468  
     285A      3.752490   286A      3.775567   287A      3.778593  
     288A      3.798599   289A      3.815688   290A      3.827706  
     291A      3.847299   292A      3.869974   293A      3.873026  
     294A      3.881737   295A      3.906224   296A      3.914624  
     297A      3.952207   298A      3.968601   299A      3.971991  
     300A      3.980426   301A      3.997687   302A      4.007873  
     303A      4.015158   304A      4.017901   305A      4.047683  
     306A      4.053585   307A      4.065742   308A      4.083615  
     309A      4.132927   310A      4.163995   311A      4.186963  
     312A      4.195143   313A      4.220882   314A      4.230484  
     315A      4.238127   316A      4.261361   317A      4.267860  
     318A      4.281934   319A      4.311961   320A      4.317068  
     321A      4.332665   322A      4.365768   323A      4.375021  
     324A      4.399579   325A      4.428063   326A      4.438139  
     327A      4.506992   328A      4.524969   329A      4.560414  
     330A      4.572389   331A      4.605470   332A      4.647531  
     333A      4.654231   334A      4.673604   335A      4.701479  
     336A      4.716328   337A      4.723275   338A      4.734843  
     339A      4.760934   340A      4.776549   341A      4.791315  
     342A      4.843070   343A      4.853789   344A      4.869365  
     345A      4.875840   346A      4.917498   347A      4.936967  
     348A      4.944193   349A      4.959721   350A      4.997529  
     351A      5.024423   352A      5.045428   353A      5.065325  
     354A      5.085974   355A      5.105966   356A      5.142193  
     357A      5.148751   358A      5.171008   359A      5.206453  
     360A      5.217524   361A      5.231128   362A      5.252549  
     363A      5.263349   364A      5.289872   365A      5.306993  
     366A      5.319060   367A      5.366078   368A      5.369645  
     369A      5.414471   370A      5.434268   371A      5.438030  
     372A      5.450332   373A      5.475125   374A      5.495630  
     375A      5.556319   376A      5.568463   377A      5.584702  
     378A      5.630271   379A      5.643057   380A      5.648819  
     381A      5.686671   382A      5.724128   383A      5.737490  
     384A      5.756620   385A      5.805743   386A      5.814164  
     387A      5.866564   388A      5.889135   389A      5.932620  
     390A      5.993981   391A      6.067190   392A      6.126008  
     393A      6.142683   394A      6.175905   395A      6.188053  
     396A      6.225228   397A      6.231783   398A      6.285748  
     399A      6.292404   400A      6.328174   401A      6.350757  
     402A      6.431607   403A      6.554727   404A      6.580366  
     405A      6.734025   406A      6.779371   407A      6.830372  
     408A      6.851137   409A      6.852996   410A      6.985576  
     411A     18.017555   412A     18.142322   413A     18.813748  
     414A     18.935448  

    Final Occupation by Irrep:
              A 
    DOCC [    17 ]

  Energy converged.

  @DF-RHF Final Energy:  -157.35277634287834

   => Energetics <=

    Nuclear Repulsion Energy =            131.3563964945482496
    One-Electron Energy =                -470.8270001797617965
    Two-Electron Energy =                 182.1178273423351754
    DFT Exchange-Correlation Energy =       0.0000000000000000
    Empirical Dispersion Energy =           0.0000000000000000
    PCM Polarization Energy =               0.0000000000000000
    EFP Energy =                            0.0000000000000000
    Total Energy =                       -157.3527763428783430



Properties will be evaluated at   0.000000,   0.000000,   0.000000 Bohr

Properties computed using the SCF density matrix

  Nuclear Dipole Moment: (a.u.)
     X:    -0.0050      Y:     0.0029      Z:    -0.0013

  Electronic Dipole Moment: (a.u.)
     X:     0.0049      Y:    -0.0034      Z:     0.0030

  Dipole Moment: (a.u.)
     X:    -0.0001      Y:    -0.0005      Z:     0.0016     Total:     0.0017

  Dipole Moment: (Debye)
     X:    -0.0002      Y:    -0.0012      Z:     0.0042     Total:     0.0043


*** tstop() called on gpu-1-8.local at Wed Jun 14 14:30:48 2017
Module time:
	user time   =      79.74 seconds =       1.33 minutes
	system time =       0.54 seconds =       0.01 minutes
	total time  =         80 seconds =       1.33 minutes
Total time:
	user time   =     560.61 seconds =       9.34 minutes
	system time =       5.09 seconds =       0.08 minutes
	total time  =        566 seconds =       9.43 minutes

  //>>>>>>>>>>>>>>>>>>>>>>>>>>>>>>>>>>>//
  //               DFMP2               //
  //<<<<<<<<<<<<<<<<<<<<<<<<<<<<<<<<<<<//

   => Loading Basis Set <=

    Name: (AUG-CC-PVTZ AUX)
    Role: RIFIT
    Keyword: DF_BASIS_MP2
    atoms 1-3, 5-6, 8-9, 11-13 entry H          line    29 file /cbio/jclab/home/chayas/anaconda/envs/py35/share/psi4/basis/aug-cc-pvtz-ri.gbs 
    atoms 4, 7, 10, 14         entry C          line   147 file /cbio/jclab/home/chayas/anaconda/envs/py35/share/psi4/basis/aug-cc-pvtz-ri.gbs 

	 --------------------------------------------------------
	                          DF-MP2                         
	      2nd-Order Density-Fitted Moller-Plesset Theory     
	              RMP2 Wavefunction,   1 Threads             
	                                                         
	        Rob Parrish, Justin Turney, Andy Simmonett,      
	           Ed Hohenstein, and C. David Sherrill          
	 --------------------------------------------------------

   => Auxiliary Basis Set <=

  Basis Set: (AUG-CC-PVTZ AUX)
    Blend: AUG-CC-PVTZ-RI
    Number of shells: 252
    Number of basis function: 884
    Number of Cartesian functions: 1094
    Spherical Harmonics?: true
    Max angular momentum: 4

	 --------------------------------------------------------
	                 NBF =   414, NAUX =   884
	 --------------------------------------------------------
	   CLASS    FOCC     OCC    AOCC    AVIR     VIR    FVIR
	   PAIRS       0      17      17     397     397       0
	 --------------------------------------------------------


         ------------------------------------------------------------
                                     CPHF                           
                                  Rob Parrish                       
         ------------------------------------------------------------

  ==> Geometry <==

    Molecular point group: c1
    Full point group: C1

    Geometry (in Angstrom), charge = 0, multiplicity = 1:

       Center              X                  Y                   Z               Mass       
    ------------   -----------------  -----------------  -----------------  -----------------
           H         -2.058015008204     1.641973225325    -0.810101945223     1.007825032070
           H         -1.973141153492    -0.095844340449    -1.066386166396     1.007825032070
           H         -2.395438082797     0.542800457042     0.518014359699     1.007825032070
           C         -1.781813054293     0.699033446338    -0.358060115090    12.000000000000
           H          0.255238392593     1.345163134480    -0.645614836161     1.007825032070
           H         -0.187585186095     1.081888919047     1.042004249772     1.007825032070
           C         -0.292774893620     0.704401060858     0.033263834171    12.000000000000
           H         -0.249499855551    -1.349257647525     0.645144724329     1.007825032070
           H          0.194223844797    -1.082142913252    -1.042770661831     1.007825032070
           C          0.296605804872    -0.705575364945    -0.033197488080    12.000000000000
           H          2.188212115766    -1.698386087859     0.308092898938     1.007825032070
           H          1.889171952226    -0.324297812030     1.367065073216     1.007825032070
           H          2.331544133660    -0.058755286173    -0.316862557086     1.007825032070
           C          1.778426329082    -0.698122994927     0.358112596672    12.000000000000

  Nuclear repulsion =  131.356396494548250
  Reference energy  = -157.352776342878343

  ==> Basis Set <==

  Basis Set: AUG-CC-PVTZ
    Blend: AUG-CC-PVTZ
    Number of shells: 146
    Number of basis function: 414
    Number of Cartesian functions: 470
    Spherical Harmonics?: true
    Max angular momentum: 3

  ==> CGRSolver (by Rob Parrish) <==

   Number of roots    =         1
   Preconditioning    =    JACOBI
   Convergence cutoff =     1E-06
   Maximum iterations =       100

  ==> CPHFRHamiltonian (by Rob Parrish) <== 

  ==> DFJK: Density-Fitted J/K Matrices <==

    J tasked:                  Yes
    K tasked:                  Yes
    wK tasked:                  No
    OpenMP threads:              1
    Integrals threads:           1
    Memory (MB):              3576
    Algorithm:                Core
    Integral Cache:           NONE
    Schwarz Cutoff:          1E-12
    Fitting Condition:       1E-12

   => Auxiliary Basis Set <=

  Basis Set: (AUG-CC-PVTZ AUX)
    Blend: AUG-CC-PVTZ-JKFIT
    Number of shells: 260
    Number of basis function: 876
    Number of Cartesian functions: 1074
    Spherical Harmonics?: true
    Max angular momentum: 4

  ==> CPHF Iterations <==

  => Iterations <=

             Iter  Converged  Remaining    Residual
  CGR           1          0          1   8.301E-02
  CGR           2          0          1   1.326E-02
  CGR           3          0          1   3.490E-03
  CGR           4          0          1   8.153E-04
  CGR           5          0          1   1.204E-04
  CGR           6          0          1   2.206E-05
  CGR           7          0          1   3.912E-06
  CGR           8          1          0   8.932E-07

    CGRSolver converged.

  ==> DFCorrGrad: Density-Fitted Correlated Gradients <==

    OpenMP threads:              1
    Integrals threads:           1
    Memory (MB):              3576
    Schwarz Cutoff:          0E+00
    Fitting Condition:       1E-12

   => Auxiliary Basis Set <=

  Basis Set: (AUG-CC-PVTZ AUX)
    Blend: AUG-CC-PVTZ-JKFIT
    Number of shells: 260
    Number of basis function: 876
    Number of Cartesian functions: 1074
    Spherical Harmonics?: true
    Max angular momentum: 4

	-----------------------------------------------------------
	 ==================> DF-MP2 Energies <==================== 
	-----------------------------------------------------------
	 Reference Energy          =    -157.3527763428783430 [Eh]
	 Singles Energy            =      -0.0000000000000001 [Eh]
	 Same-Spin Energy          =      -0.1653442002938115 [Eh]
	 Opposite-Spin Energy      =      -0.6394962766443885 [Eh]
	 Correlation Energy        =      -0.8048404769382002 [Eh]
	 Total Energy              =    -158.1576168198165533 [Eh]
	-----------------------------------------------------------
	 ================> DF-SCS-MP2 Energies <================== 
	-----------------------------------------------------------
	 SCS Same-Spin Scale       =       0.3333333333333333 [-]
	 SCS Opposite-Spin Scale   =       1.2000000000000000 [-]
	 SCS Same-Spin Energy      =      -0.0551147334312705 [Eh]
	 SCS Opposite-Spin Energy  =      -0.7673955319732662 [Eh]
	 SCS Correlation Energy    =      -0.8225102654045368 [Eh]
	 SCS Total Energy          =    -158.1752866082828746 [Eh]
	-----------------------------------------------------------


  -Total Gradient:
     Atom            X                  Y                   Z
    ------   -----------------  -----------------  -----------------
       1        0.003591322819    -0.002655053698     0.000772406691
       2        0.002284326830     0.001765379306     0.003087497206
       3        0.003966975008     0.001988411992    -0.001550195838
       4       -0.013051115723    -0.003447579976    -0.004120490760
       5       -0.003776678594    -0.003183102673     0.000622608996
       6       -0.003014860989    -0.004231739750    -0.002688213972
       7        0.012055604658     0.015722456008     0.007028315554
       8        0.003613884203     0.004222110140    -0.000355651206
       9        0.002476924566     0.003157024784     0.003301109147
      10       -0.012710992252    -0.015712658508    -0.007464171162
      11       -0.003409582042     0.002479303342    -0.000499612857
      12       -0.002210595297    -0.001401667251    -0.003443009510
      13       -0.003363239739    -0.002178430359     0.001367328197
      14        0.013548026550     0.003475546641     0.003942079512


*** tstop() called on gpu-1-8.local at Wed Jun 14 14:37:29 2017
Module time:
	user time   =     465.26 seconds =       7.75 minutes
	system time =       4.44 seconds =       0.07 minutes
	total time  =        481 seconds =       8.02 minutes
Total time:
	user time   =     946.13 seconds =      15.77 minutes
	system time =       8.99 seconds =       0.15 minutes
	total time  =        967 seconds =      16.12 minutes

			-----------------------------------------
			 OPTKING 2.0: for geometry optimizations 
			  - R.A. King,  Bethel University        
			-----------------------------------------

	Previous internal coordinate definitions found.
	---Fragment 1 Geometry and Gradient---
	 H          -3.8890847429        3.1028797134       -1.5308708162
	 H          -3.7286964016       -0.1811195548       -2.0151778064
	 H          -4.5267219448        1.0257442086        0.9789052727
	 C          -3.3671386926        1.3209817713       -0.6766355566
	 H           0.4823306606        2.5419899282       -1.2200352277
	 H          -0.3544846283        2.0444737632        1.9691026614
	 C          -0.5532643675        1.3311250927        0.0628595367
	 H          -0.4714863972       -2.5497274365        1.2191468451
	 H           0.3670298751       -2.0449537427       -1.9705509703
	 C           0.5605037406       -1.3333442059       -0.0627341608
	 H           4.1351216195       -3.2094845740        0.5822112025
	 H           3.5700176076       -0.6128340502        2.5833785942
	 H           4.4059798794       -0.1110313997       -0.5987834547
	 C           3.3607387095       -1.3192612675        0.6767347324
	             0.0035913228       -0.0026550537        0.0007724067
	             0.0022843268        0.0017653793        0.0030874972
	             0.0039669750        0.0019884120       -0.0015501958
	            -0.0130511157       -0.0034475800       -0.0041204908
	            -0.0037766786       -0.0031831027        0.0006226090
	            -0.0030148610       -0.0042317398       -0.0026882140
	             0.0120556047        0.0157224560        0.0070283156
	             0.0036138842        0.0042221101       -0.0003556512
	             0.0024769246        0.0031570248        0.0033011091
	            -0.0127109923       -0.0157126585       -0.0074641712
	            -0.0034095820        0.0024793033       -0.0004996129
	            -0.0022105953       -0.0014016673       -0.0034430095
	            -0.0033632397       -0.0021784304        0.0013673282
	             0.0135480265        0.0034755466        0.0039420795

	---Fragment 1 Intrafragment Coordinates---
	 - Coordinate -           - BOHR/RAD -       - ANG/DEG -
	 R(1,4)           =         2.043846	       1.081557
	 R(2,4)           =         2.044194	       1.081741
	 R(3,4)           =         2.042698	       1.080949
	 R(4,7)           =         2.909441	       1.539610
	 R(5,7)           =         2.045598	       1.082484
	 R(6,7)           =         2.045029	       1.082183
	 R(7,10)          =         2.890614	       1.529647
	 R(8,10)          =         2.046414	       1.082916
	 R(9,10)          =         2.045381	       1.082369
	 R(10,14)         =         2.896261	       1.532635
	 R(11,14)         =         2.044883	       1.082106
	 R(12,14)         =         2.044047	       1.081663
	 R(13,14)         =         2.044332	       1.081814
	 B(1,4,2)         =         1.898417	     108.771264
	 B(1,4,3)         =         1.896293	     108.649566
	 B(1,4,7)         =         1.928558	     110.498241
	 B(2,4,3)         =         1.900842	     108.910242
	 B(2,4,7)         =         1.917771	     109.880186
	 B(3,4,7)         =         1.921472	     110.092253
	 B(4,7,5)         =         1.909524	     109.407657
	 B(4,7,6)         =         1.909375	     109.399104
	 B(4,7,10)        =         1.937341	     111.001470
	 B(5,7,6)         =         1.905934	     109.201964
	 B(5,7,10)        =         1.900028	     108.863558
	 B(6,7,10)        =         1.901363	     108.940076
	 B(7,10,8)        =         1.903260	     109.048750
	 B(7,10,9)        =         1.901567	     108.951781
	 B(7,10,14)       =         1.935802	     110.913299
	 B(8,10,9)        =         1.906862	     109.255159
	 B(8,10,14)       =         1.907661	     109.300941
	 B(9,10,14)       =         1.908470	     109.347263
	 B(10,14,11)      =         1.928197	     110.477570
	 B(10,14,12)      =         1.916465	     109.805372
	 B(10,14,13)      =         1.915490	     109.749509
	 B(11,14,12)      =         1.900548	     108.893389
	 B(11,14,13)      =         1.900595	     108.896083
	 B(12,14,13)      =         1.902214	     108.988837
	 D(1,4,7,5)       =        -0.523216	     -29.978066
	 D(1,4,7,6)       =         1.563992	      89.610121
	 D(1,4,7,10)      =        -2.620423	    -150.139184
	 D(2,4,7,5)       =         1.571756	      90.054958
	 D(2,4,7,6)       =        -2.624222	    -150.356855
	 D(2,4,7,10)      =        -0.525452	     -30.106160
	 D(3,4,7,5)       =        -2.617924	    -149.995994
	 D(3,4,7,6)       =        -0.530716	     -30.407807
	 D(3,4,7,10)      =         1.568054	      89.842887
	 D(4,7,10,8)      =        -1.038894	     -59.524242
	 D(4,7,10,9)      =         1.041058	      59.648229
	 D(4,7,10,14)     =        -3.140556	    -179.940596
	 D(5,7,10,8)      =         3.141450	     179.991854
	 D(5,7,10,9)      =        -1.061783	     -60.835676
	 D(5,7,10,14)     =         1.039789	      59.575500
	 D(6,7,10,8)      =         1.064626	      60.998590
	 D(6,7,10,9)      =        -3.138607	    -179.828939
	 D(6,7,10,14)     =        -1.037036	     -59.417763
	 D(7,10,14,11)    =        -3.140954	    -179.963405
	 D(7,10,14,12)    =         1.045679	      59.913009
	 D(7,10,14,13)    =        -1.044968	     -59.872240
	 D(8,10,14,11)    =         1.043185	      59.770070
	 D(8,10,14,12)    =        -1.053368	     -60.353516
	 D(8,10,14,13)    =         3.139171	     179.861235
	 D(9,10,14,11)    =        -1.043485	     -59.787304
	 D(9,10,14,12)    =        -3.140037	    -179.910889
	 D(9,10,14,13)    =         1.052501	      60.303861

	Current energy   :      -158.1576168198

	Energy change for the previous step:
		Projected    :        -0.0045706625
		Actual       :        -0.0030589072

	Performing BFGS update.
	Previous computed or guess Hessian on step 1.
	Steps to be used in Hessian update: 1
	Adding user-defined constraint: Fragment 1; Coordinate 46:
		Value =     1.568054; Fixed value    =     1.570800
		Force =     0.001442; Force constant =     0.525000
	Removing off-diagonal coupling between coordinate 46 and others.
	Taking RFO optimization step.
	Going to follow RFO solution 1.
	Using RFO vector 1.

	Determining step-restricting scale parameter for RS-RFO.
	Maximum step size allowed    0.10000

	 Iter      |step|        alpha        rfo_root  
	------------------------------------------------
	    0     0.18272       1.00000           1
	    1     0.14700       4.55386           1
	    2     0.11880      13.23127           1
	    3     0.10431      22.13534           1
	    4     0.10031      25.51656           1
	    5     0.10000      25.79850           1
	------------------------------------------------
	Norm of target step-size    0.10000
	Projected energy change by RFO approximation:        -0.0016072515

	Back-transformation to cartesian coordinates...
	Successfully converged to displaced geometry.

	--- Internal Coordinate Step in ANG or DEG, aJ/ANG or AJ/DEG ---
	 ---------------------------------------------------------------------------
	   Coordinate                Previous        Force       Change         New 
	   ----------                --------       ------       ------       ------
	    1 R(1,4)          =      1.081557     0.029286     0.005186     1.086742
	    2 R(2,4)          =      1.081741     0.030672     0.005723     1.087464
	    3 R(3,4)          =      1.080949     0.031272     0.005651     1.086600
	    4 R(4,7)          =      1.539610    -0.029425    -0.008769     1.530840
	    5 R(5,7)          =      1.082484     0.034492     0.006396     1.088880
	    6 R(6,7)          =      1.082183     0.035220     0.006519     1.088702
	    7 R(7,10)         =      1.529647    -0.039855    -0.009776     1.519871
	    8 R(8,10)         =      1.082916     0.037526     0.006943     1.089859
	    9 R(9,10)         =      1.082369     0.036347     0.006741     1.089110
	   10 R(10,14)        =      1.532635    -0.039330    -0.010520     1.522115
	   11 R(11,14)        =      1.082106     0.029329     0.005125     1.087230
	   12 R(12,14)        =      1.081663     0.032315     0.005926     1.087589
	   13 R(13,14)        =      1.081814     0.031803     0.005855     1.087669
	   14 B(1,4,2)        =    108.771264    -0.000165    -0.689915   108.081349
	   15 B(1,4,3)        =    108.649566    -0.000210    -1.012204   107.637362
	   16 B(1,4,7)        =    110.498241     0.000209     0.769739   111.267980
	   17 B(2,4,3)        =    108.910242    -0.000146    -0.554996   108.355246
	   18 B(2,4,7)        =    109.880186     0.000127     0.647768   110.527954
	   19 B(3,4,7)        =    110.092253     0.000172     0.758463   110.850716
	   20 B(4,7,5)        =    109.407657    -0.000004     0.207230   109.614887
	   21 B(4,7,6)        =    109.399104    -0.000024     0.186614   109.585718
	   22 B(4,7,10)       =    111.001470     0.000285     1.118379   112.119849
	   23 B(5,7,6)        =    109.201964    -0.000087    -1.179980   108.021984
	   24 B(5,7,10)       =    108.863558    -0.000098    -0.337835   108.525723
	   25 B(6,7,10)       =    108.940076    -0.000077    -0.062031   108.878045
	   26 B(7,10,8)       =    109.048750    -0.000063    -0.077384   108.971366
	   27 B(7,10,9)       =    108.951781    -0.000091    -0.249612   108.702169
	   28 B(7,10,14)      =    110.913299     0.000271     1.073583   111.986882
	   29 B(8,10,9)       =    109.255159    -0.000078    -1.110039   108.145119
	   30 B(8,10,14)      =    109.300941    -0.000030     0.127421   109.428362
	   31 B(9,10,14)      =    109.347263    -0.000014     0.177860   109.525123
	   32 B(10,14,11)     =    110.477570     0.000204     0.835382   111.312952
	   33 B(10,14,12)     =    109.805372     0.000126     0.599598   110.404970
	   34 B(10,14,13)     =    109.749509     0.000114     0.559451   110.308960
	   35 B(11,14,12)     =    108.893389    -0.000155    -0.655078   108.238311
	   36 B(11,14,13)     =    108.896083    -0.000151    -0.641019   108.255064
	   37 B(12,14,13)     =    108.988837    -0.000147    -0.763199   108.225637
	   38 D(1,4,7,5)      =    -29.978066     0.000004     0.017486   -29.960580
	   39 D(1,4,7,6)      =     89.610121    -0.000024    -1.184554    88.425567
	   40 D(1,4,7,10)     =   -150.139184    -0.000009    -0.415716  -150.554900
	   41 D(2,4,7,5)      =     90.054958     0.000006     0.075753    90.130711
	   42 D(2,4,7,6)      =   -150.356855    -0.000022    -1.126287  -151.483142
	   43 D(2,4,7,10)     =    -30.106160    -0.000006    -0.357449   -30.463609
	   44 D(3,4,7,5)      =   -149.995994     0.000008     0.288301  -149.707693
	   45 D(3,4,7,6)      =    -30.407807    -0.000020    -0.913738   -31.321545
[...]
  CGR           2          0          1   1.345E-02
  CGR           3          0          1   3.545E-03
  CGR           4          0          1   8.172E-04
  CGR           5          0          1   1.202E-04
  CGR           6          0          1   2.256E-05
  CGR           7          0          1   4.062E-06
  CGR           8          1          0   9.356E-07

    CGRSolver converged.

  ==> DFCorrGrad: Density-Fitted Correlated Gradients <==

    OpenMP threads:              1
    Integrals threads:           1
    Memory (MB):              3576
    Schwarz Cutoff:          0E+00
    Fitting Condition:       1E-12

   => Auxiliary Basis Set <=

  Basis Set: (AUG-CC-PVTZ AUX)
    Blend: AUG-CC-PVTZ-JKFIT
    Number of shells: 260
    Number of basis function: 876
    Number of Cartesian functions: 1074
    Spherical Harmonics?: true
    Max angular momentum: 4

	-----------------------------------------------------------
	 ==================> DF-MP2 Energies <==================== 
	-----------------------------------------------------------
	 Reference Energy          =    -157.3539877974000092 [Eh]
	 Singles Energy            =      -0.0000000000000000 [Eh]
	 Same-Spin Energy          =      -0.1654418126689203 [Eh]
	 Opposite-Spin Energy      =      -0.6395144700076879 [Eh]
	 Correlation Energy        =      -0.8049562826766082 [Eh]
	 Total Energy              =    -158.1589440800766226 [Eh]
	-----------------------------------------------------------
	 ================> DF-SCS-MP2 Energies <================== 
	-----------------------------------------------------------
	 SCS Same-Spin Scale       =       0.3333333333333333 [-]
	 SCS Opposite-Spin Scale   =       1.2000000000000000 [-]
	 SCS Same-Spin Energy      =      -0.0551472708896401 [Eh]
	 SCS Opposite-Spin Energy  =      -0.7674173640092254 [Eh]
	 SCS Correlation Energy    =      -0.8225646348988656 [Eh]
	 SCS Total Energy          =    -158.1765524322988767 [Eh]
	-----------------------------------------------------------


  -Total Gradient:
     Atom            X                  Y                   Z
    ------   -----------------  -----------------  -----------------
       1       -0.000003295610    -0.000019319924    -0.000004105322
       2       -0.000017785931    -0.000015995277    -0.000012831172
       3       -0.000115186585     0.003355330998     0.000495104527
       4        0.000411040323    -0.004050704575    -0.001546604771
       5       -0.000015265685     0.000003817294     0.000023844178
       6        0.000015213212     0.000004863249     0.000023150755
       7       -0.000866840740     0.000379700063     0.003386018820
       8       -0.000017927680     0.000003708863     0.000002680863
       9        0.000005904167    -0.000011300678     0.000018023952
      10        0.000594861615     0.000357778696    -0.002348965197
      11        0.000015564339    -0.000002628175    -0.000001038173
      12       -0.000010909023     0.000001411734     0.000004330463
      13        0.000013343133     0.000003285950     0.000006492967
      14       -0.000008715540    -0.000009948218    -0.000046101891


*** tstop() called on gpu-1-8.local at Wed Jun 14 15:08:27 2017
Module time:
	user time   =     449.27 seconds =       7.49 minutes
	system time =       4.26 seconds =       0.07 minutes
	total time  =        453 seconds =       7.55 minutes
Total time:
	user time   =    2780.80 seconds =      46.35 minutes
	system time =      26.45 seconds =       0.44 minutes
	total time  =       2825 seconds =      47.08 minutes

			-----------------------------------------
			 OPTKING 2.0: for geometry optimizations 
			  - R.A. King,  Bethel University        
			-----------------------------------------

	Previous internal coordinate definitions found.
	---Fragment 1 Geometry and Gradient---
	 H          -3.9448371707        3.0980799057       -1.4795785527
	 H          -3.7955401547       -0.1741012259       -2.0260554379
	 H          -4.5507425290        1.0139092632        1.0007387202
	 C          -3.3736309264        1.3020130913       -0.6588822081
	 H           0.4578882395        2.5225495911       -1.2715201244
	 H          -0.3104385037        2.1124894559        1.9094157763
	 C          -0.5779818180        1.3071904206        0.0320847666
	 H          -0.4689447880       -2.5781497212        1.1610183248
	 H           0.3979936938       -2.0446443979       -1.9819661111
	 C           0.5947649621       -1.3073026363       -0.0672491178
	 H           4.1771791298       -3.1883970152        0.5814335794
	 H           3.5800462022       -0.6335005145        2.6256498542
	 H           4.4481019297       -0.0652034829       -0.5301254237
	 C           3.3576283386       -1.3071946327        0.6949695081
	            -0.0000032956       -0.0000193199       -0.0000041053
	            -0.0000177859       -0.0000159953       -0.0000128312
	            -0.0001151866        0.0033553310        0.0004951045
	             0.0004110403       -0.0040507046       -0.0015466048
	            -0.0000152657        0.0000038173        0.0000238442
	             0.0000152132        0.0000048632        0.0000231508
	            -0.0008668407        0.0003797001        0.0033860188
	            -0.0000179277        0.0000037089        0.0000026809
	             0.0000059042       -0.0000113007        0.0000180240
	             0.0005948616        0.0003577787       -0.0023489652
	             0.0000155643       -0.0000026282       -0.0000010382
	            -0.0000109090        0.0000014117        0.0000043305
	             0.0000133431        0.0000032860        0.0000064930
	            -0.0000087155       -0.0000099482       -0.0000461019

	---Fragment 1 Intrafragment Coordinates---
	 - Coordinate -           - BOHR/RAD -       - ANG/DEG -
	 R(1,4)           =         2.055645	       1.087800
	 R(2,4)           =         2.055744	       1.087853
	 R(3,4)           =         2.054979	       1.087448
	 R(4,7)           =         2.879777	       1.523912
	 R(5,7)           =         2.061434	       1.090864
	 R(6,7)           =         2.060208	       1.090215
	 R(7,10)          =         2.867190	       1.517251
	 R(8,10)          =         2.062807	       1.091590
	 R(9,10)          =         2.061197	       1.090738
	 R(10,14)         =         2.866076	       1.516662
	 R(11,14)         =         2.055110	       1.087517
	 R(12,14)         =         2.056905	       1.088467
	 R(13,14)         =         2.057312	       1.088683
	 B(1,4,2)         =         1.880555	     107.747850
	 B(1,4,3)         =         1.860593	     106.604105
	 B(1,4,7)         =         1.943330	     111.344608
	 B(2,4,3)         =         1.895336	     108.594763
	 B(2,4,7)         =         1.939172	     111.106354
	 B(3,4,7)         =         1.941801	     111.257006
	 B(4,7,5)         =         1.914683	     109.703255
	 B(4,7,6)         =         1.923473	     110.206860
	 B(4,7,10)        =         1.968305	     112.775548
	 B(5,7,6)         =         1.855148	     106.292176
	 B(5,7,10)        =         1.886164	     108.069231
	 B(6,7,10)        =         1.912280	     109.565572
	 B(7,10,8)        =         1.907347	     109.282927
	 B(7,10,9)        =         1.895822	     108.622598
	 B(7,10,14)       =         1.966053	     112.646559
	 B(8,10,9)        =         1.858245	     106.469610
	 B(8,10,14)       =         1.916397	     109.801448
	 B(9,10,14)       =         1.916741	     109.821180
	 B(10,14,11)      =         1.949481	     111.697056
	 B(10,14,12)      =         1.932508	     110.724541
	 B(10,14,13)      =         1.931162	     110.647449
	 B(11,14,12)      =         1.884460	     107.971606
	 B(11,14,13)      =         1.884240	     107.958989
	 B(12,14,13)      =         1.879578	     107.691874
	 D(1,4,7,5)       =        -0.543159	     -31.120726
	 D(1,4,7,6)       =         1.493658	      85.580295
	 D(1,4,7,10)      =        -2.646438	    -151.629732
	 D(2,4,7,5)       =         1.553144	      88.988589
	 D(2,4,7,6)       =        -2.693224	    -154.310390
	 D(2,4,7,10)      =        -0.550135	     -31.520417
	 D(3,4,7,5)       =        -2.616001	    -149.885836
	 D(3,4,7,6)       =        -0.579184	     -33.184815
	 D(3,4,7,10)      =         1.563905	      89.605157
	 D(4,7,10,8)      =        -0.977369	     -55.999104
	 D(4,7,10,9)      =         1.043295	      59.776419
	 D(4,7,10,14)     =        -3.112491	    -178.332578
	 D(5,7,10,8)      =        -3.096902	    -177.439439
	 D(5,7,10,9)      =        -1.076238	     -61.663916
	 D(5,7,10,14)     =         1.051161	      60.227087
	 D(6,7,10,8)      =         1.171962	      67.148498
	 D(6,7,10,9)      =        -3.090559	    -177.075979
	 D(6,7,10,14)     =        -0.963160	     -55.184976
	 D(7,10,14,11)    =        -3.123951	    -178.989203
	 D(7,10,14,12)    =         1.058371	      60.640201
	 D(7,10,14,13)    =        -1.024284	     -58.687178
	 D(8,10,14,11)    =         1.029216	      58.969732
	 D(8,10,14,12)    =        -1.071647	     -61.400865
	 D(8,10,14,13)    =         3.128882	     179.271756
	 D(9,10,14,11)    =        -1.008431	     -57.778821
	 D(9,10,14,12)    =        -3.109294	    -178.149418
	 D(9,10,14,13)    =         1.091236	      62.523203

	Current energy   :      -158.1589440801

	Energy change for the previous step:
		Projected    :        -0.0000071204
		Actual       :         0.0000005827

	Performing BFGS update.
	Previous computed or guess Hessian on step 1.
	Steps to be used in Hessian update: 5 4
	Adding user-defined constraint: Fragment 1; Coordinate 46:
		Value =     1.563905; Fixed value    =     1.570800
		Force =     0.004309; Force constant =     0.625000
	Removing off-diagonal coupling between coordinate 46 and others.
	Taking RFO optimization step.
	Going to follow RFO solution 1.
	Using RFO vector 1.
	Norm of target step-size    0.01738
	Projected energy change by RFO approximation:        -0.0000035677

	Back-transformation to cartesian coordinates...
	Successfully converged to displaced geometry.

	--- Internal Coordinate Step in ANG or DEG, aJ/ANG or AJ/DEG ---
	 ---------------------------------------------------------------------------
	   Coordinate                Previous        Force       Change         New 
	   ----------                --------       ------       ------       ------
	    1 R(1,4)          =      1.087800     0.000118     0.000002     1.087803
	    2 R(2,4)          =      1.087853    -0.000195     0.000107     1.087959
	    3 R(3,4)          =      1.087448     0.000038     0.000097     1.087545
	    4 R(4,7)          =      1.523912     0.000075     0.000076     1.523988
	    5 R(5,7)          =      1.090864     0.000169     0.000058     1.090922
	    6 R(6,7)          =      1.090215    -0.000206     0.000160     1.090375
	    7 R(7,10)         =      1.517251    -0.000099    -0.000055     1.517196
	    8 R(8,10)         =      1.091590    -0.000070     0.000079     1.091669
	    9 R(9,10)         =      1.090738     0.000109     0.000054     1.090792
	   10 R(10,14)        =      1.516662     0.000006    -0.000026     1.516636
	   11 R(11,14)        =      1.087517    -0.000071     0.000052     1.087569
	   12 R(12,14)        =      1.088467    -0.000028     0.000141     1.088609
	   13 R(13,14)        =      1.088683    -0.000043     0.000114     1.088797
	   14 B(1,4,2)        =    107.747850     0.000001    -0.005017   107.742833
	   15 B(1,4,3)        =    106.604105    -0.000003     0.010261   106.614365
	   16 B(1,4,7)        =    111.344608    -0.000003    -0.004511   111.340097
	   17 B(2,4,3)        =    108.594763     0.000003    -0.025785   108.568978
	   18 B(2,4,7)        =    111.106354     0.000000     0.005527   111.111881
	   19 B(3,4,7)        =    111.257006     0.000002     0.018391   111.275397
	   20 B(4,7,5)        =    109.703255     0.000001     0.029651   109.732906
	   21 B(4,7,6)        =    110.206860    -0.000001    -0.032825   110.174036
	   22 B(4,7,10)       =    112.775548     0.000001     0.007693   112.783242
	   23 B(5,7,6)        =    106.292176     0.000001     0.012390   106.304566
	   24 B(5,7,10)       =    108.069231    -0.000004     0.012041   108.081272
	   25 B(6,7,10)       =    109.565572     0.000003    -0.027646   109.537926
	   26 B(7,10,8)       =    109.282927     0.000001    -0.013002   109.269925
	   27 B(7,10,9)       =    108.622598    -0.000001     0.018112   108.640710
	   28 B(7,10,14)      =    112.646559    -0.000001    -0.016398   112.630161
	   29 B(8,10,9)       =    106.469610     0.000000     0.014493   106.484103
	   30 B(8,10,14)      =    109.801448    -0.000001    -0.020266   109.781182
	   31 B(9,10,14)      =    109.821180     0.000001     0.019097   109.840277
	   32 B(10,14,11)     =    111.697056    -0.000001    -0.012471   111.684585
	   33 B(10,14,12)     =    110.724541     0.000002     0.026518   110.751059
	   34 B(10,14,13)     =    110.647449    -0.000001    -0.001171   110.646278
	   35 B(11,14,12)     =    107.971606    -0.000000    -0.010522   107.961084
	   36 B(11,14,13)     =    107.958989     0.000001     0.000451   107.959440
	   37 B(12,14,13)     =    107.691874     0.000000    -0.003331   107.688544
	   38 D(1,4,7,5)      =    -31.120726    -0.000000     0.083282   -31.037444
	   39 D(1,4,7,6)      =     85.580295    -0.000000     0.096659    85.676954
	   40 D(1,4,7,10)     =   -151.629732     0.000001     0.042142  -151.587591
	   41 D(2,4,7,5)      =     88.988589    -0.000000     0.077624    89.066213
	   42 D(2,4,7,6)      =   -154.310390    -0.000000     0.091001  -154.219389
	   43 D(2,4,7,10)     =    -31.520417     0.000001     0.036483   -31.483934
	   44 D(3,4,7,5)      =   -149.885836     0.000001     0.061200  -149.824636
	   45 D(3,4,7,6)      =    -33.184815     0.000001     0.074577   -33.110238
	   46 D(3,4,7,10)     =     89.605157     0.000002     0.020059    89.625217
	   47 D(4,7,10,8)     =    -55.999104    -0.000000     0.254405   -55.744699
	   48 D(4,7,10,9)     =     59.776419    -0.000000     0.274580    60.050999
	   49 D(4,7,10,14)    =   -178.332578     0.000000     0.300705  -178.031873
	   50 D(5,7,10,8)     =   -177.439439     0.000000     0.203816  -177.235624
	   51 D(5,7,10,9)     =    -61.663916     0.000000     0.223991   -61.439925
	   52 D(5,7,10,14)    =     60.227087     0.000000     0.250116    60.477203
	   53 D(6,7,10,8)     =     67.148498     0.000000     0.197172    67.345670
	   54 D(6,7,10,9)     =   -177.075979     0.000000     0.217347  -176.858632
	   55 D(6,7,10,14)    =    -55.184976     0.000000     0.243472   -54.941504
	   56 D(7,10,14,11)   =   -178.989203     0.000000    -0.233577  -179.222780
	   57 D(7,10,14,12)   =     60.640201     0.000000    -0.229956    60.410244
	   58 D(7,10,14,13)   =    -58.687178    -0.000000    -0.242144   -58.929323
	   59 D(8,10,14,11)   =     58.969732     0.000000    -0.191143    58.778589
	   60 D(8,10,14,12)   =    -61.400865    -0.000000    -0.187522   -61.588387
	   61 D(8,10,14,13)   =    179.271756    -0.000000    -0.199710   179.072046
	   62 D(9,10,14,11)   =    -57.778821    -0.000000    -0.208034   -57.986855
	   63 D(9,10,14,12)   =   -178.149418    -0.000000    -0.204413  -178.353831
	   64 D(9,10,14,13)   =     62.523203    -0.000000    -0.216601    62.306602
	 ---------------------------------------------------------------------------
	Successfully symmetrized geometry.
	 Forces used to impose fixed constraints are not included.
	  Forces zeroed: 46 

  ==> Convergence Check <==

  Measures of convergence in internal coordinates in au.
  Criteria marked as inactive (o), active & met (*), and active & unmet ( ).
  ---------------------------------------------------------------------------------------------
   Step     Total Energy     Delta E     MAX Force     RMS Force      MAX Disp      RMS Disp   
  ---------------------------------------------------------------------------------------------
    Convergence Criteria    1.00e-06 *    3.00e-04 *             o    1.20e-03 *             o
  ---------------------------------------------------------------------------------------------
      6    -158.15894408    5.83e-07 *    5.12e-05 *    1.93e-05 o    5.25e-03      2.17e-03 o  ~
  ---------------------------------------------------------------------------------------------


  **** Optimization is complete! (in 6 steps) ****

  ==> Optimization Summary <==

  Measures of convergence in internal coordinates in au.
  --------------------------------------------------------------------------------------------------------------- ~
   Step         Total Energy             Delta E       MAX Force       RMS Force        MAX Disp        RMS Disp  ~
  --------------------------------------------------------------------------------------------------------------- ~
      1    -158.154557912626   -158.154557912626      0.01331964      0.00563150      0.02618706      0.01250494  ~
      2    -158.157616819817     -0.003058907190      0.00483752      0.00229957      0.03106930      0.01252351  ~
      3    -158.158663018350     -0.001046198533      0.00174867      0.00066038      0.04328567      0.01252019  ~
      4    -158.158916199982     -0.000253181633      0.00084323      0.00018949      0.03567929      0.01130053  ~
      5    -158.158944662801     -0.000028462818      0.00019142      0.00005589      0.00536947      0.00233151  ~
      6    -158.158944080077      0.000000582724      0.00009803      0.00002287      0.00524829      0.00217232  ~
  --------------------------------------------------------------------------------------------------------------- ~

	Writing optimization data to binary file.
	Final energy is   -158.1589440800766
	Final (previous) structure:
	Cartesian Geometry (in Angstrom)
	    H    -2.0875179223   1.6394332765  -0.7829592484
	    H    -2.0085133442  -0.0921304007  -1.0721423611
	    H    -2.4081492285   0.5365376736   0.5295681225
	    C    -1.7852485965   0.6889956532  -0.3486654476
	    H     0.2423040204   1.3348757511  -0.6728594701
	    H    -0.1642769808   1.1178812734   1.0104193105
	    C    -0.3058548050   0.6917353779   0.0169785272
	    H    -0.2481548939  -1.3642980728   0.6143844362
	    H     0.2106091919  -1.0819792151  -1.0488112942
	    C     0.3147360624  -0.6917947599  -0.0355867004
	    H     2.2104679917  -1.6872270324   0.3076813985
	    H     1.8944788559  -0.3352340339   1.3894340606
	    H     2.3538341627  -0.0345041971  -0.2805302919
	    C     1.7767803917  -0.6917376068   0.3677620244
	Saving final (previous) structure.
			--------------------------
			 OPTKING Finished Execution 
			--------------------------

    Final optimized geometry and variables:
    Molecular point group: c1
    Full point group: C1

    Geometry (in Angstrom), charge = 0, multiplicity = 1:

    H           -2.087517922311     1.639433276495    -0.782959248385
    H           -2.008513344175    -0.092130400714    -1.072142361063
    H           -2.408149228509     0.536537673649     0.529568122488
    C           -1.785248596458     0.688995653201    -0.348665447648
    H            0.242304020413     1.334875751129    -0.672859470086
    H           -0.164276980811     1.117881273444     1.010419310536
    C           -0.305854805049     0.691735377888     0.016978527231
    H           -0.248154893899    -1.364298072790     0.614384436223
    H            0.210609191901    -1.081979215066    -1.048811294173
    C            0.314736062428    -0.691794759875    -0.035586700421
    H            2.210467991711    -1.687227032375     0.307681398516
    H            1.894478855879    -0.335234033895     1.389434060586
    H            2.353834162704    -0.034504197079    -0.280530291910
    C            1.776780391726    -0.691737606791     0.367762024377

	Cleaning optimization helper files.

*** Psi4 exiting successfully. Buy a developer a beer!
