
    -----------------------------------------------------------------------
          Psi4: An Open-Source Ab Initio Electronic Structure Package
                               Psi4 1.1 release

                         Git: Rev {HEAD} add49b9 


    R. M. Parrish, L. A. Burns, D. G. A. Smith, A. C. Simmonett,
    A. E. DePrince III, E. G. Hohenstein, U. Bozkaya, A. Yu. Sokolov,
    R. Di Remigio, R. M. Richard, J. F. Gonthier, A. M. James,
    H. R. McAlexander, A. Kumar, M. Saitow, X. Wang, B. P. Pritchard,
    P. Verma, H. F. Schaefer III, K. Patkowski, R. A. King, E. F. Valeev,
    F. A. Evangelista, J. M. Turney, T. D. Crawford, and C. D. Sherrill,
    J. Chem. Theory Comput. in press (2017).
    (doi: 10.1021/acs.jctc.7b00174)

    -----------------------------------------------------------------------


    Psi4 started on: Wednesday, 14 June 2017 02:22PM

    Process ID:  26598
    PSIDATADIR: /cbio/jclab/home/chayas/anaconda/envs/py35/share/psi4
    Memory:     500.0 MiB
    Threads:    1
    
  ==> Input File <==

--------------------------------------------------------------------------

memory 1000 mb

molecule butane {
  symmetry C1
  0 1 
  H      2.085   1.043   -9.982
  H      2.488   2.733   -9.793
  H      3.563   1.672   -10.669
  C      2.885   1.741   -9.845
  H      4.431   2.114   -8.401
  H      2.953   1.486   -7.712
  C      3.631   1.416   -8.537
  H      3.665   -0.647   -7.940
  H      4.104   -0.384   -9.610
  C      4.203   -0.012   -8.612
  H      6.088   -0.983   -8.270
  H      5.791   0.381   -7.220
  H      6.230   0.644   -8.890
  C      5.691   0.009   -8.218
  units Angstrom
}

dih_string = "14 10 7 4 130"
set optking fixed_dihedral = $dih_string

optimize('MP2/aug-cc-pvtz')
--------------------------------------------------------------------------

  Memory set to 953.674 MiB by Python driver.
gradient() will perform analytic gradient computation.

*** tstart() called on cpu-6-2.local
*** at Wed Jun 14 14:22:04 2017

    SCF Algorithm Type (re)set to DF.

*** tstart() called on cpu-6-2.local
*** at Wed Jun 14 14:22:04 2017

   => Loading Basis Set <=

    Name: AUG-CC-PVTZ
    Role: ORBITAL
    Keyword: BASIS
    atoms 1-3, 5-6, 8-9, 11-13 entry H          line    34 file /cbio/jclab/home/chayas/anaconda/envs/py35/share/psi4/basis/aug-cc-pvtz.gbs 
    atoms 4, 7, 10, 14         entry C          line   221 file /cbio/jclab/home/chayas/anaconda/envs/py35/share/psi4/basis/aug-cc-pvtz.gbs 


         ---------------------------------------------------------
                                   SCF
            by Justin Turney, Rob Parrish, and Andy Simmonett
                              RHF Reference
                        1 Threads,    953 MiB Core
         ---------------------------------------------------------

  ==> Geometry <==

    Molecular point group: c1
    Full point group: C1

    Geometry (in Angstrom), charge = 0, multiplicity = 1:

       Center              X                  Y                   Z               Mass       
    ------------   -----------------  -----------------  -----------------  -----------------
           H         -2.023972625034     0.251480598510    -1.171069732867     1.007825032070
           H         -1.620972625034     1.941480598510    -0.982069732867     1.007825032070
           H         -0.545972625034     0.880480598510    -1.858069732867     1.007825032070
           C         -1.223972625034     0.949480598510    -1.034069732867    12.000000000000
           H          0.322027374966     1.322480598510     0.409930267133     1.007825032070
           H         -1.155972625034     0.694480598510     1.098930267133     1.007825032070
           C         -0.477972625034     0.624480598510     0.273930267133    12.000000000000
           H         -0.443972625034    -1.438519401490     0.870930267133     1.007825032070
           H         -0.004972625034    -1.175519401490    -0.799069732867     1.007825032070
           C          0.094027374966    -0.803519401490     0.198930267133    12.000000000000
           H          1.979027374966    -1.774519401490     0.540930267133     1.007825032070
           H          1.682027374966    -0.410519401490     1.590930267133     1.007825032070
           H          2.121027374966    -0.147519401490    -0.079069732867     1.007825032070
           C          1.582027374966    -0.782519401490     0.592930267133    12.000000000000

  Running in c1 symmetry.

  Rotational constants: A =      0.63081  B =      0.12931  C =      0.12654 [cm^-1]
  Rotational constants: A =  18911.15739  B =   3876.69483  C =   3793.56380 [MHz]
  Nuclear repulsion =  132.350152882861806

  Charge       = 0
  Multiplicity = 1
  Electrons    = 34
  Nalpha       = 17
  Nbeta        = 17

  ==> Algorithm <==

  SCF Algorithm Type is DF.
  DIIS enabled.
  MOM disabled.
  Fractional occupation disabled.
  Guess Type is SAD.
  Energy threshold   = 1.00e-10
  Density threshold  = 1.00e-10
  Integral threshold = 0.00e+00

  ==> Primary Basis <==

  Basis Set: AUG-CC-PVTZ
    Blend: AUG-CC-PVTZ
    Number of shells: 146
    Number of basis function: 414
    Number of Cartesian functions: 470
    Spherical Harmonics?: true
    Max angular momentum: 3

   => Loading Basis Set <=

    Name: (AUG-CC-PVTZ AUX)
    Role: JKFIT
    Keyword: DF_BASIS_SCF
    atoms 1-3, 5-6, 8-9, 11-13 entry H          line    69 file /cbio/jclab/home/chayas/anaconda/envs/py35/share/psi4/basis/aug-cc-pvtz-jkfit.gbs 
    atoms 4, 7, 10, 14         entry C          line   161 file /cbio/jclab/home/chayas/anaconda/envs/py35/share/psi4/basis/aug-cc-pvtz-jkfit.gbs 

  ==> Pre-Iterations <==

   -------------------------------------------------------
    Irrep   Nso     Nmo     Nalpha   Nbeta   Ndocc  Nsocc
   -------------------------------------------------------
     A        414     414       0       0       0       0
   -------------------------------------------------------
    Total     414     414      17      17      17       0
   -------------------------------------------------------

  ==> Integral Setup <==

  ==> DFJK: Density-Fitted J/K Matrices <==

    J tasked:                  Yes
    K tasked:                  Yes
    wK tasked:                  No
    OpenMP threads:              1
    Integrals threads:           1
    Memory (MB):               715
    Algorithm:                Core
    Integral Cache:           NONE
    Schwarz Cutoff:          1E-12
    Fitting Condition:       1E-12

   => Auxiliary Basis Set <=

  Basis Set: (AUG-CC-PVTZ AUX)
    Blend: AUG-CC-PVTZ-JKFIT
    Number of shells: 260
    Number of basis function: 876
    Number of Cartesian functions: 1074
    Spherical Harmonics?: true
    Max angular momentum: 4

  Minimum eigenvalue in the overlap matrix is 7.7879523680E-06.
  Using Symmetric Orthogonalization.

  SCF Guess: Superposition of Atomic Densities via on-the-fly atomic UHF.

  ==> Iterations <==

                           Total Energy        Delta E     RMS |[F,P]|

   @DF-RHF iter   0:  -159.00837971462295   -1.59008e+02   9.54808e-03 
   @DF-RHF iter   1:  -157.24019180238571    1.76819e+00   8.82833e-04 
   @DF-RHF iter   2:  -157.33406610455904   -9.38743e-02   2.97973e-04 DIIS
   @DF-RHF iter   3:  -157.34508697281672   -1.10209e-02   1.22412e-04 DIIS
   @DF-RHF iter   4:  -157.34708961285685   -2.00264e-03   1.81598e-05 DIIS
   @DF-RHF iter   5:  -157.34715585619244   -6.62433e-05   4.50403e-06 DIIS
   @DF-RHF iter   6:  -157.34715936573511   -3.50954e-06   1.24897e-06 DIIS
   @DF-RHF iter   7:  -157.34715958694304   -2.21208e-07   2.53729e-07 DIIS
   @DF-RHF iter   8:  -157.34715960083824   -1.38952e-08   6.19975e-08 DIIS
   @DF-RHF iter   9:  -157.34715960163734   -7.99105e-10   2.02103e-08 DIIS
   @DF-RHF iter  10:  -157.34715960171712   -7.97797e-11   5.38020e-09 DIIS
   @DF-RHF iter  11:  -157.34715960172198   -4.86011e-12   1.35907e-09 DIIS
   @DF-RHF iter  12:  -157.34715960172193    5.68434e-14   2.85558e-10 DIIS
   @DF-RHF iter  13:  -157.34715960172289   -9.66338e-13   6.04489e-11 DIIS

  ==> Post-Iterations <==

    Orbital Energies (a.u.)
    -----------------------

    Doubly Occupied:                                                      

       1A    -11.205433     2A    -11.204824     3A    -11.199719  
       4A    -11.199655     5A     -1.071226     6A     -0.980431  
       7A     -0.864008     8A     -0.793792     9A     -0.640966  
      10A     -0.598939    11A     -0.584947    12A     -0.556792  
      13A     -0.512059    14A     -0.511712    15A     -0.470020  
      16A     -0.465569    17A     -0.441966  

    Virtual:                                                              

      18A      0.032152    19A      0.037615    20A      0.039687  
      21A      0.039795    22A      0.056900    23A      0.060239  
      24A      0.061193    25A      0.063294    26A      0.064965  
      27A      0.084072    28A      0.119363    29A      0.120654  
      30A      0.120696    31A      0.127804    32A      0.129071  
      33A      0.134463    34A      0.141335    35A      0.143174  
      36A      0.146695    37A      0.149683    38A      0.157962  
      39A      0.168288    40A      0.171428    41A      0.204124  
      42A      0.204754    43A      0.213222    44A      0.229018  
      45A      0.236525    46A      0.243105    47A      0.268946  
      48A      0.282969    49A      0.283318    50A      0.295904  
      51A      0.301324    52A      0.303792    53A      0.308735  
      54A      0.325442    55A      0.331587    56A      0.332223  
      57A      0.347002    58A      0.357067    59A      0.357712  
      60A      0.359793    61A      0.360305    62A      0.377063  
      63A      0.378269    64A      0.378806    65A      0.387878  
      66A      0.391628    67A      0.397400    68A      0.402566  
      69A      0.415010    70A      0.421844    71A      0.428322  
      72A      0.431467    73A      0.445583    74A      0.450972  
      75A      0.451485    76A      0.457365    77A      0.457825  
      78A      0.468526    79A      0.477073    80A      0.480628  
      81A      0.480896    82A      0.497537    83A      0.505336  
      84A      0.507974    85A      0.514515    86A      0.529071  
      87A      0.532478    88A      0.542477    89A      0.542807  
      90A      0.552816    91A      0.557490    92A      0.561807  
      93A      0.573008    94A      0.579866    95A      0.587196  
      96A      0.591508    97A      0.598844    98A      0.603112  
      99A      0.609165   100A      0.631498   101A      0.632877  
     102A      0.651314   103A      0.659850   104A      0.682548  
     105A      0.688975   106A      0.693804   107A      0.760019  
     108A      0.783560   109A      0.811421   110A      0.820638  
     111A      0.821159   112A      0.829447   113A      0.834801  
     114A      0.846749   115A      0.848100   116A      0.862439  
     117A      0.864222   118A      0.870543   119A      0.880397  
     120A      0.881437   121A      0.900477   122A      0.903771  
     123A      0.904477   124A      0.917517   125A      0.930924  
     126A      0.936079   127A      0.938264   128A      0.954884  
     129A      0.968781   130A      0.972577   131A      0.973044  
     132A      0.976030   133A      0.978830   134A      0.985912  
     135A      0.994864   136A      1.010841   137A      1.024485  
     138A      1.033002   139A      1.035046   140A      1.054960  
     141A      1.058838   142A      1.079556   143A      1.089300  
     144A      1.096200   145A      1.112264   146A      1.113843  
     147A      1.127355   148A      1.147072   149A      1.153799  
     150A      1.163415   151A      1.165075   152A      1.168406  
     153A      1.168716   154A      1.190290   155A      1.202498  
     156A      1.218095   157A      1.219855   158A      1.237375  
     159A      1.262863   160A      1.265596   161A      1.267996  
     162A      1.277897   163A      1.281655   164A      1.287478  
     165A      1.301144   166A      1.323877   167A      1.329837  
     168A      1.349761   169A      1.351954   170A      1.362908  
     171A      1.389916   172A      1.396565   173A      1.423665  
     174A      1.427734   175A      1.445165   176A      1.453895  
     177A      1.463294   178A      1.476004   179A      1.492402  
     180A      1.513225   181A      1.516791   182A      1.536308  
     183A      1.539495   184A      1.541081   185A      1.568444  
     186A      1.598639   187A      1.610768   188A      1.615266  
     189A      1.616956   190A      1.660121   191A      1.664623  
     192A      1.671347   193A      1.676277   194A      1.687940  
     195A      1.696763   196A      1.701662   197A      1.709468  
     198A      1.712261   199A      1.717231   200A      1.737989  
     201A      1.749353   202A      1.755018   203A      1.764613  
     204A      1.768019   205A      1.780724   206A      1.812994  
     207A      1.817034   208A      1.828562   209A      1.850397  
     210A      1.850815   211A      1.872144   212A      1.882112  
     213A      1.896646   214A      1.913948   215A      1.915728  
     216A      1.948250   217A      1.962008   218A      1.969913  
     219A      1.983390   220A      1.987213   221A      1.993802  
     222A      2.016206   223A      2.035754   224A      2.056535  
     225A      2.059595   226A      2.075957   227A      2.077521  
     228A      2.089251   229A      2.103340   230A      2.132710  
     231A      2.141667   232A      2.164406   233A      2.212278  
     234A      2.245293   235A      2.251043   236A      2.253818  
     237A      2.256886   238A      2.270921   239A      2.297436  
     240A      2.309909   241A      2.317548   242A      2.336311  
     243A      2.360444   244A      2.369018   245A      2.385161  
     246A      2.420298   247A      2.445320   248A      2.461681  
     249A      2.470450   250A      2.490634   251A      2.542146  
     252A      2.565979   253A      2.576903   254A      2.581672  
     255A      2.593684   256A      2.672337   257A      2.855336  
     258A      2.858274   259A      2.975042   260A      3.007457  
     261A      3.220622   262A      3.262260   263A      3.284775  
     264A      3.306108   265A      3.338521   266A      3.438240  
     267A      3.449675   268A      3.474868   269A      3.477872  
     270A      3.520937   271A      3.554296   272A      3.554896  
     273A      3.575414   274A      3.582884   275A      3.608508  
     276A      3.626855   277A      3.637218   278A      3.655437  
     279A      3.660396   280A      3.696581   281A      3.703864  
     282A      3.709261   283A      3.727371   284A      3.749363  
     285A      3.759383   286A      3.778297   287A      3.784329  
     288A      3.794215   289A      3.827434   290A      3.830765  
     291A      3.848909   292A      3.849874   293A      3.869719  
     294A      3.892665   295A      3.910254   296A      3.942462  
     297A      3.964301   298A      3.965700   299A      3.975144  
     300A      3.995571   301A      4.011167   302A      4.011935  
     303A      4.027922   304A      4.060247   305A      4.060704  
     306A      4.086711   307A      4.094869   308A      4.099145  
     309A      4.099551   310A      4.152039   311A      4.172031  
     312A      4.192558   313A      4.212348   314A      4.241022  
     315A      4.270979   316A      4.295053   317A      4.300742  
     318A      4.319554   319A      4.328076   320A      4.333431  
     321A      4.347600   322A      4.386285   323A      4.404452  
     324A      4.406481   325A      4.436374   326A      4.478658  
     327A      4.508743   328A      4.547357   329A      4.560976  
     330A      4.619721   331A      4.642101   332A      4.684002  
     333A      4.685760   334A      4.697566   335A      4.698455  
     336A      4.723112   337A      4.740841   338A      4.770493  
     339A      4.774604   340A      4.826176   341A      4.837365  
     342A      4.851393   343A      4.878052   344A      4.890058  
     345A      4.893702   346A      4.921611   347A      4.941690  
     348A      4.963905   349A      4.976631   350A      5.013870  
     351A      5.029082   352A      5.084005   353A      5.087592  
     354A      5.101379   355A      5.123558   356A      5.172657  
     357A      5.173856   358A      5.198666   359A      5.209891  
     360A      5.224079   361A      5.257723   362A      5.269268  
     363A      5.300957   364A      5.330800   365A      5.351887  
     366A      5.367043   367A      5.375455   368A      5.381181  
     369A      5.401852   370A      5.459756   371A      5.495499  
     372A      5.507290   373A      5.522395   374A      5.545478  
     375A      5.578962   376A      5.586783   377A      5.619417  
     378A      5.635568   379A      5.652508   380A      5.673557  
     381A      5.700073   382A      5.774828   383A      5.792907  
     384A      5.837120   385A      5.862862   386A      5.864428  
     387A      5.927926   388A      5.930413   389A      5.980457  
     390A      6.020507   391A      6.046874   392A      6.132443  
     393A      6.166530   394A      6.219432   395A      6.255775  
     396A      6.272829   397A      6.293360   398A      6.303297  
     399A      6.332601   400A      6.371397   401A      6.412165  
     402A      6.488682   403A      6.551082   404A      6.626348  
     405A      6.760897   406A      6.777385   407A      6.848045  
     408A      6.856487   409A      6.903210   410A      6.998285  
     411A     18.040842   412A     18.454610   413A     18.785073  
     414A     19.968256  

    Final Occupation by Irrep:
              A 
    DOCC [    17 ]

  Energy converged.

  @DF-RHF Final Energy:  -157.34715960172289

   => Energetics <=

    Nuclear Repulsion Energy =            132.3501528828618063
    One-Electron Energy =                -472.7905100010530077
    Two-Electron Energy =                 183.0931975164682797
    DFT Exchange-Correlation Energy =       0.0000000000000000
    Empirical Dispersion Energy =           0.0000000000000000
    PCM Polarization Energy =               0.0000000000000000
    EFP Energy =                            0.0000000000000000
    Total Energy =                       -157.3471596017228933



Properties will be evaluated at   0.000000,   0.000000,   0.000000 Bohr

Properties computed using the SCF density matrix

  Nuclear Dipole Moment: (a.u.)
     X:     0.2890      Y:     0.1348      Z:    -0.3541

  Electronic Dipole Moment: (a.u.)
     X:    -0.3084      Y:    -0.1442      Z:     0.3782

  Dipole Moment: (a.u.)
     X:    -0.0194      Y:    -0.0094      Z:     0.0241     Total:     0.0323

  Dipole Moment: (Debye)
     X:    -0.0493      Y:    -0.0238      Z:     0.0612     Total:     0.0821


*** tstop() called on cpu-6-2.local at Wed Jun 14 14:23:19 2017
Module time:
	user time   =      75.06 seconds =       1.25 minutes
	system time =       0.54 seconds =       0.01 minutes
	total time  =         75 seconds =       1.25 minutes
Total time:
	user time   =      75.07 seconds =       1.25 minutes
	system time =       0.54 seconds =       0.01 minutes
	total time  =         75 seconds =       1.25 minutes

  //>>>>>>>>>>>>>>>>>>>>>>>>>>>>>>>>>>>//
  //               DFMP2               //
  //<<<<<<<<<<<<<<<<<<<<<<<<<<<<<<<<<<<//

   => Loading Basis Set <=

    Name: (AUG-CC-PVTZ AUX)
    Role: RIFIT
    Keyword: DF_BASIS_MP2
    atoms 1-3, 5-6, 8-9, 11-13 entry H          line    29 file /cbio/jclab/home/chayas/anaconda/envs/py35/share/psi4/basis/aug-cc-pvtz-ri.gbs 
    atoms 4, 7, 10, 14         entry C          line   147 file /cbio/jclab/home/chayas/anaconda/envs/py35/share/psi4/basis/aug-cc-pvtz-ri.gbs 

	 --------------------------------------------------------
	                          DF-MP2                         
	      2nd-Order Density-Fitted Moller-Plesset Theory     
	              RMP2 Wavefunction,   1 Threads             
	                                                         
	        Rob Parrish, Justin Turney, Andy Simmonett,      
	           Ed Hohenstein, and C. David Sherrill          
	 --------------------------------------------------------

   => Auxiliary Basis Set <=

  Basis Set: (AUG-CC-PVTZ AUX)
    Blend: AUG-CC-PVTZ-RI
    Number of shells: 252
    Number of basis function: 884
    Number of Cartesian functions: 1094
    Spherical Harmonics?: true
    Max angular momentum: 4

	 --------------------------------------------------------
	                 NBF =   414, NAUX =   884
	 --------------------------------------------------------
	   CLASS    FOCC     OCC    AOCC    AVIR     VIR    FVIR
	   PAIRS       0      17      17     397     397       0
	 --------------------------------------------------------


         ------------------------------------------------------------
                                     CPHF                           
                                  Rob Parrish                       
         ------------------------------------------------------------

  ==> Geometry <==

    Molecular point group: c1
    Full point group: C1

    Geometry (in Angstrom), charge = 0, multiplicity = 1:

       Center              X                  Y                   Z               Mass       
    ------------   -----------------  -----------------  -----------------  -----------------
           H         -2.023972625034     0.251480598510    -1.171069732867     1.007825032070
           H         -1.620972625034     1.941480598510    -0.982069732867     1.007825032070
           H         -0.545972625034     0.880480598510    -1.858069732867     1.007825032070
           C         -1.223972625034     0.949480598510    -1.034069732867    12.000000000000
           H          0.322027374966     1.322480598510     0.409930267133     1.007825032070
           H         -1.155972625034     0.694480598510     1.098930267133     1.007825032070
           C         -0.477972625034     0.624480598510     0.273930267133    12.000000000000
           H         -0.443972625034    -1.438519401490     0.870930267133     1.007825032070
           H         -0.004972625034    -1.175519401490    -0.799069732867     1.007825032070
           C          0.094027374966    -0.803519401490     0.198930267133    12.000000000000
           H          1.979027374966    -1.774519401490     0.540930267133     1.007825032070
           H          1.682027374966    -0.410519401490     1.590930267133     1.007825032070
           H          2.121027374966    -0.147519401490    -0.079069732867     1.007825032070
           C          1.582027374966    -0.782519401490     0.592930267133    12.000000000000

  Nuclear repulsion =  132.350152882861806
  Reference energy  = -157.347159601722893

  ==> Basis Set <==

  Basis Set: AUG-CC-PVTZ
    Blend: AUG-CC-PVTZ
    Number of shells: 146
    Number of basis function: 414
    Number of Cartesian functions: 470
    Spherical Harmonics?: true
    Max angular momentum: 3

  ==> CGRSolver (by Rob Parrish) <==

   Number of roots    =         1
   Preconditioning    =    JACOBI
   Convergence cutoff =     1E-06
   Maximum iterations =       100

  ==> CPHFRHamiltonian (by Rob Parrish) <== 

  ==> DFJK: Density-Fitted J/K Matrices <==

    J tasked:                  Yes
    K tasked:                  Yes
    wK tasked:                  No
    OpenMP threads:              1
    Integrals threads:           1
    Memory (MB):               715
    Algorithm:                Core
    Integral Cache:           NONE
    Schwarz Cutoff:          1E-12
    Fitting Condition:       1E-12

   => Auxiliary Basis Set <=

  Basis Set: (AUG-CC-PVTZ AUX)
    Blend: AUG-CC-PVTZ-JKFIT
    Number of shells: 260
    Number of basis function: 876
    Number of Cartesian functions: 1074
    Spherical Harmonics?: true
    Max angular momentum: 4

  ==> CPHF Iterations <==

  => Iterations <=

             Iter  Converged  Remaining    Residual
  CGR           1          0          1   8.258E-02
  CGR           2          0          1   1.335E-02
  CGR           3          0          1   3.387E-03
  CGR           4          0          1   8.377E-04
  CGR           5          0          1   1.510E-04
  CGR           6          0          1   3.321E-05
  CGR           7          0          1   6.960E-06
  CGR           8          0          1   1.448E-06
  CGR           9          1          0   2.230E-07

    CGRSolver converged.

  ==> DFCorrGrad: Density-Fitted Correlated Gradients <==

    OpenMP threads:              1
    Integrals threads:           1
    Memory (MB):               715
    Schwarz Cutoff:          0E+00
    Fitting Condition:       1E-12

   => Auxiliary Basis Set <=

  Basis Set: (AUG-CC-PVTZ AUX)
    Blend: AUG-CC-PVTZ-JKFIT
    Number of shells: 260
    Number of basis function: 876
    Number of Cartesian functions: 1074
    Spherical Harmonics?: true
    Max angular momentum: 4

	-----------------------------------------------------------
	 ==================> DF-MP2 Energies <==================== 
	-----------------------------------------------------------
	 Reference Energy          =    -157.3471596017228933 [Eh]
	 Singles Energy            =      -0.0000000000000001 [Eh]
	 Same-Spin Energy          =      -0.1655269394954634 [Eh]
	 Opposite-Spin Energy      =      -0.6396311322237437 [Eh]
	 Correlation Energy        =      -0.8051580717192072 [Eh]
	 Total Energy              =    -158.1523176734420986 [Eh]
	-----------------------------------------------------------
	 ================> DF-SCS-MP2 Energies <================== 
	-----------------------------------------------------------
	 SCS Same-Spin Scale       =       0.3333333333333333 [-]
	 SCS Opposite-Spin Scale   =       1.2000000000000000 [-]
	 SCS Same-Spin Energy      =      -0.0551756464984878 [Eh]
	 SCS Opposite-Spin Energy  =      -0.7675573586684924 [Eh]
	 SCS Correlation Energy    =      -0.8227330051669803 [Eh]
	 SCS Total Energy          =    -158.1698926068898743 [Eh]
	-----------------------------------------------------------


  -Total Gradient:
     Atom            X                  Y                   Z
    ------   -----------------  -----------------  -----------------
       1        0.008907680132     0.006673891400     0.003332429981
       2        0.006477638665    -0.011172988734     0.003391234822
       3       -0.006638438547     0.000615076003     0.010496427505
       4       -0.009441035613    -0.000749804495    -0.025553826465
       5       -0.007707415118    -0.009032494144    -0.003205644463
       6        0.006061312073    -0.004327713257    -0.010318817777
       7        0.008948396143     0.018216204140     0.027332988074
       8        0.006411170610     0.010251190734    -0.004949379579
       9        0.001904639043     0.006479689723     0.010852643270
      10       -0.020529500401    -0.024207187979    -0.013000611276
      11       -0.008676695327     0.010180984312    -0.000752098266
      12       -0.003085189328    -0.004169875090    -0.010978997437
      13       -0.007160245554    -0.006755802738     0.006520993851
      14        0.024527683226     0.007998830130     0.006832657760


*** tstop() called on cpu-6-2.local at Wed Jun 14 14:27:39 2017
Module time:
	user time   =     332.02 seconds =       5.53 minutes
	system time =       3.22 seconds =       0.05 minutes
	total time  =        335 seconds =       5.58 minutes
Total time:
	user time   =     332.03 seconds =       5.53 minutes
	system time =       3.22 seconds =       0.05 minutes
	total time  =        335 seconds =       5.58 minutes

			-----------------------------------------
			 OPTKING 2.0: for geometry optimizations 
			  - R.A. King,  Bethel University        
			-----------------------------------------

	Internal coordinates to be generated automatically.
	Detected frag 1 with atoms:  1 2 3 4 5 6 7 8 9 10 11 12 13 14
	---Fragment 1 Bond Connectivity---
	 1 : 4
	 2 : 4
	 3 : 4
	 4 : 1 2 3 7
	 5 : 7
	 6 : 7
	 7 : 4 5 6 10
	 8 : 10
	 9 : 10
	 10 : 7 8 9 14
	 11 : 14
	 12 : 14
	 13 : 14
	 14 : 10 11 12 13

	Assuming in current code that numbering for constraints corresponds to unified fragment.
	Fixed dihedral atom list: 
	    14    10     7     4
	---Fragment 1 Geometry and Gradient---
	 H          -3.8247539618        0.4752294589       -2.2130010776
	 H          -3.0631943302        3.6688666235       -1.8558428385
	 H          -1.0317387374        1.6638671965       -3.5112429309
	 C          -2.3129730555        1.7942582997       -1.9541085974
	 H           0.6085435460        2.4991261472        0.7746559385
	 H          -2.1844716784        1.3123781358        2.0766772440
	 C          -0.9032373603        1.1800973065        0.5176531844
	 H          -0.8389866718       -2.7184077057        1.6458196857
	 H          -0.0093968995       -2.2214097327       -1.5100229562
	 C           0.1776859877       -1.5184316113        0.3759237244
	 H           3.7398197482       -3.3533556863        1.0222100619
	 H           3.1785710867       -0.7757692411        3.0064225014
	 H           4.0081608590       -0.2787712681       -0.1494201405
	 C           2.9895984734       -1.4787473625        1.1204758208
	             0.0089076801        0.0066738914        0.0033324300
	             0.0064776387       -0.0111729887        0.0033912348
	            -0.0066384385        0.0006150760        0.0104964275
	            -0.0094410356       -0.0007498045       -0.0255538265
	            -0.0077074151       -0.0090324941       -0.0032056445
	             0.0060613121       -0.0043277133       -0.0103188178
	             0.0089483961        0.0182162041        0.0273329881
	             0.0064111706        0.0102511907       -0.0049493796
	             0.0019046390        0.0064796897        0.0108526433
	            -0.0205295004       -0.0242071880       -0.0130006113
	            -0.0086766953        0.0101809843       -0.0007520983
	            -0.0030851893       -0.0041698751       -0.0109789974
	            -0.0071602456       -0.0067558027        0.0065209939
	             0.0245276832        0.0079988301        0.0068326578

	Previous optimization step data not found.  Starting new optimization.

	---Fragment 1 Intrafragment Coordinates---
	 - Coordinate -           - BOHR/RAD -       - ANG/DEG -
	 R(1,4)           =         2.022954	       1.070501
	 R(2,4)           =         2.021545	       1.069756
	 R(3,4)           =         2.020701	       1.069309
	 R(4,7)           =         2.911040	       1.540456
	 R(5,7)           =         2.022713	       1.070374
	 R(6,7)           =         2.022280	       1.070144
	 R(7,10)          =         2.910419	       1.540128
	 R(8,10)          =         2.021436	       1.069698
	 R(9,10)          =         2.021379	       1.069668
	 R(10,14)         =         2.909087	       1.539422
	 R(11,14)         =         2.021545	       1.069756
	 R(12,14)         =         2.021555	       1.069761
	 R(13,14)         =         2.022387	       1.070201
	 B(1,4,2)         =         1.910832	     109.482635
	 B(1,4,3)         =         1.910434	     109.459784
	 B(1,4,7)         =         1.910285	     109.451294
	 B(2,4,3)         =         1.909857	     109.426726
	 B(2,4,7)         =         1.911433	     109.517035
	 B(3,4,7)         =         1.910958	     109.489840
	 B(4,7,5)         =         1.909486	     109.405509
	 B(4,7,6)         =         1.911314	     109.510247
	 B(4,7,10)        =         1.911473	     109.519359
	 B(5,7,6)         =         1.910191	     109.445854
	 B(5,7,10)        =         1.910530	     109.465320
	 B(6,7,10)        =         1.910804	     109.480981
	 B(7,10,8)        =         1.910303	     109.452301
	 B(7,10,9)        =         1.910824	     109.482155
	 B(7,10,14)       =         1.911213	     109.504437
	 B(8,10,9)        =         1.910417	     109.458846
	 B(8,10,14)       =         1.910766	     109.478806
	 B(9,10,14)       =         1.910276	     109.450772
	 B(10,14,11)      =         1.910943	     109.488965
	 B(10,14,12)      =         1.911204	     109.503926
	 B(10,14,13)      =         1.911557	     109.524173
	 B(11,14,12)      =         1.910410	     109.458432
	 B(11,14,13)      =         1.910054	     109.438058
	 B(12,14,13)      =         1.909629	     109.413709
	 D(1,4,7,5)       =         3.141095	     179.971505
	 D(1,4,7,6)       =        -1.048522	     -60.075913
	 D(1,4,7,10)      =         1.047015	      59.989525
	 D(2,4,7,5)       =        -1.047174	     -59.998660
	 D(2,4,7,6)       =         1.046393	      59.953921
	 D(2,4,7,10)      =        -3.141255	    -179.980641
	 D(3,4,7,5)       =         1.046959	      59.986316
	 D(3,4,7,6)       =         3.140526	     179.938898
	 D(3,4,7,10)      =        -1.047122	     -59.995665
	 D(4,7,10,8)      =        -1.919696	    -109.990471
	 D(4,7,10,9)      =         0.174349	       9.989484
	 D(4,7,10,14)     =         2.268779	     129.991487
	 D(5,7,10,8)      =         2.270048	     130.064156
	 D(5,7,10,9)      =        -1.919092	    -109.955889
	 D(5,7,10,14)     =         0.175338	      10.046114
	 D(6,7,10,8)      =         0.176154	      10.092859
	 D(6,7,10,9)      =         2.270199	     130.072814
	 D(6,7,10,14)     =        -1.918556	    -109.925183
	 D(7,10,14,11)    =         3.141408	     179.989448
	 D(7,10,14,12)    =         1.046747	      59.974196
	 D(7,10,14,13)    =        -1.047335	     -60.007849
	 D(8,10,14,11)    =         1.046982	      59.987626
	 D(8,10,14,12)    =        -1.047680	     -60.027626
	 D(8,10,14,13)    =         3.141424	     179.990329
	 D(9,10,14,11)    =        -1.047012	     -59.989345
	 D(9,10,14,12)    =         3.141512	     179.995403
	 D(9,10,14,13)    =         1.047431	      60.013359

	Current energy   :      -158.1523176734

	Generating empirical Hessian (Schlegel '84) for each fragment.
	Adding user-defined constraint: Fragment 1; Coordinate 49:
		Value =     2.268779; Fixed value    =     2.268928
		Force =     0.000074; Force constant =     0.500000
	Removing off-diagonal coupling between coordinate 49 and others.
	Taking RFO optimization step.
	Going to follow RFO solution 1.
	Using RFO vector 1.

	Determining step-restricting scale parameter for RS-RFO.
	Maximum step size allowed    0.10000

	 Iter      |step|        alpha        rfo_root  
	------------------------------------------------
	    0     0.20303       1.00000           1
	    1     0.15408       6.44804           1
	    2     0.12218      17.47051           1
	    3     0.10569      29.70981           1
	    4     0.10052      35.27439           1
	    5     0.10000      35.88951           1
	------------------------------------------------
	Norm of target step-size    0.10000
	Projected energy change by RFO approximation:        -0.0046602666

	Back-transformation to cartesian coordinates...
	Successfully converged to displaced geometry.

	--- Internal Coordinate Step in ANG or DEG, aJ/ANG or AJ/DEG ---
	 ---------------------------------------------------------------------------
	   Coordinate                Previous        Force       Change         New 
	   ----------                --------       ------       ------       ------
	    1 R(1,4)          =      1.070501     0.094209     0.011552     1.082053
	    2 R(2,4)          =      1.069756     0.103808     0.012706     1.082462
	    3 R(3,4)          =      1.069309     0.101643     0.012428     1.081737
	    4 R(4,7)          =      1.540456    -0.053014    -0.007793     1.532663
	    5 R(5,7)          =      1.070374     0.099343     0.012178     1.082552
	    6 R(6,7)          =      1.070144     0.099510     0.012192     1.082336
	    7 R(7,10)         =      1.540128     0.016326     0.002398     1.542526
	    8 R(8,10)         =      1.069698     0.102318     0.012522     1.082220
	    9 R(9,10)         =      1.069668     0.103439     0.012658     1.082326
	   10 R(10,14)        =      1.539422    -0.048877    -0.007170     1.532252
	   11 R(11,14)        =      1.069756     0.104009     0.012731     1.082487
	   12 R(12,14)        =      1.069761     0.098708     0.012082     1.081843
	   13 R(13,14)        =      1.070201     0.096471     0.011821     1.082022
	   14 B(1,4,2)        =    109.482635    -0.000248    -0.573925   108.908711
	   15 B(1,4,3)        =    109.459784    -0.000144    -0.402415   109.057369
	   16 B(1,4,7)        =    109.451294     0.000118     0.269428   109.720722
	   17 B(2,4,3)        =    109.426726    -0.000223    -0.523291   108.903435
	   18 B(2,4,7)        =    109.517035     0.000444     1.099801   110.616836
	   19 B(3,4,7)        =    109.489840     0.000053     0.115288   109.605128
	   20 B(4,7,5)        =    109.405509    -0.000176    -0.368522   109.036987
	   21 B(4,7,6)        =    109.510247    -0.000228    -0.445139   109.065108
	   22 B(4,7,10)       =    109.519359     0.000675     1.470653   110.990012
	   23 B(5,7,6)        =    109.445854    -0.000020    -0.362369   109.083486
	   24 B(5,7,10)       =    109.465320    -0.000165    -0.270488   109.194833
	   25 B(6,7,10)       =    109.480981    -0.000087    -0.038684   109.442297
	   26 B(7,10,8)       =    109.452301    -0.000089    -0.040110   109.412190
	   27 B(7,10,9)       =    109.482155    -0.000168    -0.278978   109.203177
	   28 B(7,10,14)      =    109.504437     0.000682     1.485727   110.990164
	   29 B(8,10,9)       =    109.458846    -0.000019    -0.363558   109.095288
	   30 B(8,10,14)      =    109.478806    -0.000226    -0.438003   109.040804
	   31 B(9,10,14)      =    109.450772    -0.000181    -0.379219   109.071554
	   32 B(10,14,11)     =    109.488965     0.000452     1.120928   110.609892
	   33 B(10,14,12)     =    109.503926     0.000109     0.247864   109.751790
	   34 B(10,14,13)     =    109.524173     0.000050     0.108038   109.632211
	   35 B(11,14,12)     =    109.458432    -0.000247    -0.568496   108.889935
	   36 B(11,14,13)     =    109.438058    -0.000228    -0.535767   108.902291
	   37 B(12,14,13)     =    109.413709    -0.000138    -0.388652   109.025057
	   38 D(1,4,7,5)      =    179.971505     0.000019     0.275912   180.247418
	   39 D(1,4,7,6)      =    -60.075913    -0.000043    -0.652244   -60.728157
	   40 D(1,4,7,10)     =     59.989525    -0.000004    -0.067236    59.922289
	   41 D(2,4,7,5)      =    -59.998660     0.000029     0.422513   -59.576147
	   42 D(2,4,7,6)      =     59.953921    -0.000033    -0.505644    59.448278
	   43 D(2,4,7,10)     =   -179.980641     0.000005     0.079364  -179.901276
	   44 D(3,4,7,5)      =     59.986316     0.000036     0.533161    60.519477
	   45 D(3,4,7,6)      =    179.938898    -0.000026    -0.394995   179.543902
	   46 D(3,4,7,10)     =    -59.995665     0.000012     0.190013   -59.805652
	   47 D(4,7,10,8)     =   -109.990471     0.000028     0.426993  -109.563478
	   48 D(4,7,10,9)     =      9.989484    -0.000013    -0.210135     9.779349
	   49 D(4,7,10,14)    =    129.991487     0.000008     0.067684   130.059171
	   50 D(5,7,10,8)     =    130.064156     0.000006     0.140940   130.205096
	   51 D(5,7,10,9)     =   -109.955889    -0.000035    -0.496188  -110.452077
	   52 D(5,7,10,14)    =     10.046114    -0.000014    -0.218369     9.827745
	   53 D(6,7,10,8)     =     10.092859     0.000047     0.770791    10.863650
	   54 D(6,7,10,9)     =    130.072814     0.000005     0.133663   130.206477
	   55 D(6,7,10,14)    =   -109.925183     0.000027     0.411482  -109.513701
	   56 D(7,10,14,11)   =    179.989448     0.000006     0.089106   180.078554
	   57 D(7,10,14,12)   =     59.974196    -0.000004    -0.064352    59.909844
	   58 D(7,10,14,13)   =    -60.007849     0.000012     0.193605   -59.814243
	   59 D(8,10,14,11)   =     59.987626    -0.000033    -0.506421    59.481205
	   60 D(8,10,14,12)   =    -60.027626    -0.000043    -0.659879   -60.687505
	   61 D(8,10,14,13)   =    179.990329    -0.000027    -0.401922   179.588407
	   62 D(9,10,14,11)   =    -59.989345     0.000029     0.425824   -59.563520
	   63 D(9,10,14,12)   =    179.995403     0.000019     0.272367   180.267770
	   64 D(9,10,14,13)   =     60.013359     0.000036     0.530324    60.543682
	 ---------------------------------------------------------------------------
	Successfully symmetrized geometry.
	 Forces used to impose fixed constraints are not included.
	  Forces zeroed: 49 

  ==> Convergence Check <==

  Measures of convergence in internal coordinates in au.
  Criteria marked as inactive (o), active & met (*), and active & unmet ( ).
  --------------------------------------------------------------------------------------------- ~
   Step     Total Energy     Delta E     MAX Force     RMS Force      MAX Disp      RMS Disp    ~
  --------------------------------------------------------------------------------------------- ~
    Convergence Criteria    1.00e-06 *    3.00e-04 *             o    1.20e-03 *             o  ~
  --------------------------------------------------------------------------------------------- ~
      1    -158.15231767   -1.58e+02      1.26e-02      5.51e-03 o    2.59e-02      1.25e-02 o  ~
  ---------------------------------------------------------------------------------------------

	Writing optimization data to binary file.
	Structure for next step:
	Cartesian Geometry (in Angstrom)
	    H    -2.0418515030   0.2410701539  -1.1837439276
	    H    -1.6530266008   1.9484796760  -0.9959541561
	    H    -0.5562487792   0.8885868008  -1.8758921811
	    C    -1.2374000207   0.9498662371  -1.0377800638
	    H     0.3103699363   1.3399910036   0.3959444538
	    H    -1.1755940621   0.6940212258   1.0917586739
	    C    -0.4883885667   0.6223176432   0.2586569677
	    H    -0.4326981650  -1.4420068252   0.8877095258
	    H     0.0166375430  -1.1879140290  -0.7982715516
	    C     0.1097584498  -0.7985868817   0.2073043374
	    H     2.0034043557  -1.7853099742   0.5647279777
	    H     1.6950541361  -0.4025575493   1.6103638961
	    H     2.1427011678  -0.1504394464  -0.0749780291
	    C     1.5896653583  -0.7857896555   0.6041778166
			--------------------------
			 OPTKING Finished Execution 
			--------------------------

    Structure for next step:
    Molecular point group: c1
    Full point group: C1

    Geometry (in Angstrom), charge = 0, multiplicity = 1:

    H           -2.041761738605     0.241091928946    -1.183864676607
    H           -1.652936836355     1.948501451083    -0.996074905133
    H           -0.556159014767     0.888608575922    -1.876012930131
    C           -1.237310256301     0.949888012208    -1.037900812782
    H            0.310459700662     1.340012778676     0.395823704783
    H           -1.175504297673     0.694043000853     1.091637924865
    C           -0.488298802303     0.622339418309     0.258536218695
    H           -0.432608400623    -1.441985050085     0.887588776799
    H            0.016727307407    -1.187892253942    -0.798392300620
    C            0.109848214176    -0.798565106570     0.207183588407
    H            2.003494120135    -1.785288199122     0.564607228698
    H            1.695143900459    -0.402535774217     1.610243147063
    H            2.142790932202    -0.150417671315    -0.075098778079
    C            1.589755122748    -0.785767880400     0.604057067598

gradient() will perform analytic gradient computation.

*** tstart() called on cpu-6-2.local
*** at Wed Jun 14 14:27:39 2017

    SCF Algorithm Type (re)set to DF.

*** tstart() called on cpu-6-2.local
*** at Wed Jun 14 14:27:39 2017

   => Loading Basis Set <=

    Name: AUG-CC-PVTZ
    Role: ORBITAL
    Keyword: BASIS
    atoms 1-3, 5-6, 8-9, 11-13 entry H          line    34 file /cbio/jclab/home/chayas/anaconda/envs/py35/share/psi4/basis/aug-cc-pvtz.gbs 
    atoms 4, 7, 10, 14         entry C          line   221 file /cbio/jclab/home/chayas/anaconda/envs/py35/share/psi4/basis/aug-cc-pvtz.gbs 


         ---------------------------------------------------------
                                   SCF
            by Justin Turney, Rob Parrish, and Andy Simmonett
                              RHF Reference
                        1 Threads,    953 MiB Core
         ---------------------------------------------------------

  ==> Geometry <==

    Molecular point group: c1
    Full point group: C1

    Geometry (in Angstrom), charge = 0, multiplicity = 1:

       Center              X                  Y                   Z               Mass       
    ------------   -----------------  -----------------  -----------------  -----------------
           H         -2.041761738605     0.241091928946    -1.183864676607     1.007825032070
           H         -1.652936836355     1.948501451083    -0.996074905133     1.007825032070
           H         -0.556159014767     0.888608575922    -1.876012930131     1.007825032070
           C         -1.237310256301     0.949888012208    -1.037900812782    12.000000000000
           H          0.310459700662     1.340012778676     0.395823704783     1.007825032070
           H         -1.175504297673     0.694043000853     1.091637924865     1.007825032070
           C         -0.488298802303     0.622339418309     0.258536218695    12.000000000000
           H         -0.432608400623    -1.441985050085     0.887588776799     1.007825032070
           H          0.016727307407    -1.187892253942    -0.798392300620     1.007825032070
           C          0.109848214176    -0.798565106570     0.207183588407    12.000000000000
           H          2.003494120135    -1.785288199122     0.564607228698     1.007825032070
           H          1.695143900459    -0.402535774217     1.610243147063     1.007825032070
           H          2.142790932202    -0.150417671315    -0.075098778079     1.007825032070
           C          1.589755122748    -0.785767880400     0.604057067598    12.000000000000

  Running in c1 symmetry.

  Rotational constants: A =      0.63708  B =      0.12733  C =      0.12480 [cm^-1]
  Rotational constants: A =  19099.29490  B =   3817.33723  C =   3741.32872 [MHz]
  Nuclear repulsion =  131.692024259163674

  Charge       = 0
  Multiplicity = 1
  Electrons    = 34
  Nalpha       = 17
  Nbeta        = 17

  ==> Algorithm <==

  SCF Algorithm Type is DF.
  DIIS enabled.
  MOM disabled.
  Fractional occupation disabled.
  Guess Type is READ.
  Energy threshold   = 1.00e-10
  Density threshold  = 1.00e-10
  Integral threshold = 0.00e+00

  ==> Primary Basis <==

  Basis Set: AUG-CC-PVTZ
    Blend: AUG-CC-PVTZ
    Number of shells: 146
    Number of basis function: 414
    Number of Cartesian functions: 470
    Spherical Harmonics?: true
    Max angular momentum: 3

   => Loading Basis Set <=

    Name: (AUG-CC-PVTZ AUX)
    Role: JKFIT
    Keyword: DF_BASIS_SCF
    atoms 1-3, 5-6, 8-9, 11-13 entry H          line    69 file /cbio/jclab/home/chayas/anaconda/envs/py35/share/psi4/basis/aug-cc-pvtz-jkfit.gbs 
    atoms 4, 7, 10, 14         entry C          line   161 file /cbio/jclab/home/chayas/anaconda/envs/py35/share/psi4/basis/aug-cc-pvtz-jkfit.gbs 

  Reading orbitals from file 180, no projection.

  ==> Pre-Iterations <==

   -------------------------------------------------------
    Irrep   Nso     Nmo     Nalpha   Nbeta   Ndocc  Nsocc
   -------------------------------------------------------
     A        414     414       0       0       0       0
   -------------------------------------------------------
    Total     414     414      17      17      17       0
   -------------------------------------------------------

  ==> Integral Setup <==

  ==> DFJK: Density-Fitted J/K Matrices <==

    J tasked:                  Yes
    K tasked:                  Yes
    wK tasked:                  No
    OpenMP threads:              1
    Integrals threads:           1
    Memory (MB):               715
    Algorithm:                Core
    Integral Cache:           NONE
    Schwarz Cutoff:          1E-12
    Fitting Condition:       1E-12

   => Auxiliary Basis Set <=

  Basis Set: (AUG-CC-PVTZ AUX)
    Blend: AUG-CC-PVTZ-JKFIT
    Number of shells: 260
    Number of basis function: 876
    Number of Cartesian functions: 1074
    Spherical Harmonics?: true
    Max angular momentum: 4

  Minimum eigenvalue in the overlap matrix is 8.2282834562E-06.
  Using Symmetric Orthogonalization.

  SCF Guess: Orbitals guess was supplied from a previous computation.

  ==> Iterations <==

                           Total Energy        Delta E     RMS |[F,P]|

   @DF-RHF iter   0:  -157.26698600591416   -1.57267e+02   1.30734e-04 
   @DF-RHF iter   1:  -157.34951906417493   -8.25331e-02   5.52616e-05 
   @DF-RHF iter   2:  -157.34982615841415   -3.07094e-04   2.86989e-05 DIIS
   @DF-RHF iter   3:  -157.34989346722358   -6.73088e-05   3.32440e-06 DIIS
   @DF-RHF iter   4:  -157.34989560528055   -2.13806e-06   8.64797e-07 DIIS
   @DF-RHF iter   5:  -157.34989572989866   -1.24618e-07   3.06091e-07 DIIS
   @DF-RHF iter   6:  -157.34989574432242   -1.44238e-08   5.40924e-08 DIIS
   @DF-RHF iter   7:  -157.34989574498823   -6.65807e-10   9.77369e-09 DIIS
   @DF-RHF iter   8:  -157.34989574500918   -2.09468e-11   2.38797e-09 DIIS
   @DF-RHF iter   9:  -157.34989574501029   -1.10845e-12   5.34850e-10 DIIS
   @DF-RHF iter  10:  -157.34989574501020    8.52651e-14   1.03534e-10 DIIS
   @DF-RHF iter  11:  -157.34989574500881    1.39266e-12   2.08506e-11 DIIS

  ==> Post-Iterations <==

    Orbital Energies (a.u.)
    -----------------------

    Doubly Occupied:                                                      

       1A    -11.209709     2A    -11.209134     3A    -11.204587  
       4A    -11.204568     5A     -1.069594     6A     -0.979896  
       7A     -0.860844     8A     -0.788757     9A     -0.637832  
      10A     -0.597188    11A     -0.582265    12A     -0.555726  
      13A     -0.509274    14A     -0.508583    15A     -0.466137  
      16A     -0.461884    17A     -0.448116  

    Virtual:                                                              

      18A      0.032155    19A      0.037548    20A      0.039696  
      21A      0.039800    22A      0.056797    23A      0.060172  
      24A      0.061120    25A      0.063499    26A      0.065108  
      27A      0.083799    28A      0.119125    29A      0.120592  
      30A      0.120722    31A      0.127481    32A      0.129092  
      33A      0.134478    34A      0.141480    35A      0.143104  
      36A      0.146749    37A      0.149714    38A      0.157858  
      39A      0.168276    40A      0.171642    41A      0.204089  
      42A      0.204784    43A      0.213032    44A      0.228164  
      45A      0.235151    46A      0.241408    47A      0.268676  
      48A      0.281194    49A      0.281470    50A      0.296176  
      51A      0.300396    52A      0.301610    53A      0.308051  
      54A      0.324844    55A      0.331557    56A      0.331796  
      57A      0.346495    58A      0.356328    59A      0.356935  
      60A      0.359886    61A      0.360570    62A      0.375813  
      63A      0.376527    64A      0.377180    65A      0.387751  
      66A      0.390240    67A      0.396253    68A      0.401734  
      69A      0.413024    70A      0.420629    71A      0.426235  
      72A      0.430270    73A      0.443984    74A      0.447835  
      75A      0.449910    76A      0.454783    77A      0.456071  
      78A      0.467494    79A      0.475968    80A      0.476993  
      81A      0.477317    82A      0.496954    83A      0.504498  
      84A      0.506348    85A      0.514267    86A      0.527634  
      87A      0.531630    88A      0.541342    89A      0.541347  
      90A      0.552657    91A      0.557647    92A      0.563078  
      93A      0.571410    94A      0.579587    95A      0.585903  
      96A      0.587700    97A      0.598723    98A      0.600615  
      99A      0.606585   100A      0.628068   101A      0.631168  
     102A      0.650954   103A      0.658466   104A      0.681042  
     105A      0.687437   106A      0.693120   107A      0.760496  
     108A      0.780702   109A      0.811889   110A      0.818562  
     111A      0.820407   112A      0.829576   113A      0.834414  
     114A      0.845424   115A      0.845705   116A      0.860437  
     117A      0.863023   118A      0.868107   119A      0.877920  
     120A      0.878130   121A      0.898274   122A      0.901781  
     123A      0.902644   124A      0.915892   125A      0.929263  
     126A      0.932609   127A      0.937247   128A      0.952627  
     129A      0.966356   130A      0.969081   131A      0.971917  
     132A      0.975080   133A      0.976988   134A      0.983821  
     135A      0.995495   136A      1.008947   137A      1.020246  
     138A      1.031202   139A      1.032605   140A      1.053986  
     141A      1.056395   142A      1.078278   143A      1.084325  
     144A      1.096597   145A      1.108994   146A      1.110136  
     147A      1.123836   148A      1.143783   149A      1.150193  
     150A      1.157846   151A      1.161838   152A      1.163512  
     153A      1.164924   154A      1.187032   155A      1.199657  
     156A      1.211839   157A      1.217951   158A      1.232236  
     159A      1.258077   160A      1.259276   161A      1.263696  
     162A      1.271854   163A      1.278269   164A      1.282394  
     165A      1.296443   166A      1.317499   167A      1.324177  
     168A      1.344732   169A      1.346751   170A      1.358635  
     171A      1.381070   172A      1.390532   173A      1.417887  
     174A      1.427249   175A      1.441464   176A      1.451817  
     177A      1.456050   178A      1.474884   179A      1.486953  
     180A      1.507579   181A      1.517448   182A      1.531267  
     183A      1.538149   184A      1.540842   185A      1.562785  
     186A      1.595199   187A      1.607035   188A      1.610992  
     189A      1.612633   190A      1.655205   191A      1.658257  
     192A      1.666833   193A      1.672528   194A      1.682796  
     195A      1.687049   196A      1.696728   197A      1.703604  
     198A      1.707032   199A      1.714122   200A      1.738292  
     201A      1.744315   202A      1.751404   203A      1.761940  
     204A      1.765516   205A      1.778633   206A      1.807633  
     207A      1.811831   208A      1.823813   209A      1.848704  
     210A      1.850103   211A      1.865358   212A      1.875710  
     213A      1.889819   214A      1.905284   215A      1.911372  
     216A      1.948890   217A      1.952879   218A      1.964390  
     219A      1.973564   220A      1.982915   221A      1.984358  
     222A      2.006289   223A      2.030539   224A      2.046727  
     225A      2.053981   226A      2.066216   227A      2.068683  
     228A      2.085281   229A      2.097622   230A      2.126659  
     231A      2.133874   232A      2.156812   233A      2.201438  
     234A      2.234393   235A      2.246777   236A      2.247771  
     237A      2.250924   238A      2.262581   239A      2.287129  
     240A      2.299999   241A      2.310707   242A      2.322152  
     243A      2.350135   244A      2.364028   245A      2.376817  
     246A      2.414794   247A      2.444171   248A      2.462575  
     249A      2.462953   250A      2.489113   251A      2.535088  
     252A      2.567157   253A      2.574559   254A      2.581860  
     255A      2.582557   256A      2.662835   257A      2.857465  
     258A      2.868398   259A      2.984138   260A      3.019034  
     261A      3.213912   262A      3.272827   263A      3.288102  
     264A      3.308941   265A      3.343578   266A      3.440485  
     267A      3.456216   268A      3.473412   269A      3.475040  
     270A      3.528294   271A      3.546790   272A      3.556793  
     273A      3.569909   274A      3.580260   275A      3.604463  
     276A      3.617966   277A      3.638691   278A      3.654435  
     279A      3.656328   280A      3.692910   281A      3.703189  
     282A      3.704693   283A      3.724241   284A      3.746066  
     285A      3.749743   286A      3.776646   287A      3.781142  
     288A      3.792487   289A      3.825733   290A      3.828400  
     291A      3.841970   292A      3.846010   293A      3.863197  
     294A      3.887338   295A      3.904749   296A      3.940434  
     297A      3.951038   298A      3.953897   299A      3.970586  
     300A      3.995538   301A      3.996403   302A      4.003929  
     303A      4.015630   304A      4.047226   305A      4.054913  
     306A      4.079885   307A      4.080622   308A      4.088501  
     309A      4.093780   310A      4.138901   311A      4.163642  
     312A      4.188131   313A      4.200347   314A      4.224833  
     315A      4.261371   316A      4.282238   317A      4.290428  
     318A      4.296864   319A      4.318417   320A      4.320357  
     321A      4.334037   322A      4.371363   323A      4.383669  
     324A      4.399525   325A      4.421844   326A      4.460905  
     327A      4.493275   328A      4.522294   329A      4.543168  
     330A      4.608782   331A      4.621951   332A      4.658442  
     333A      4.664893   334A      4.670950   335A      4.680295  
     336A      4.699502   337A      4.725477   338A      4.751191  
     339A      4.761797   340A      4.820026   341A      4.822339  
     342A      4.839094   343A      4.859257   344A      4.873941  
     345A      4.877056   346A      4.901425   347A      4.918211  
     348A      4.945375   349A      4.958390   350A      4.994343  
     351A      5.012513   352A      5.059462   353A      5.073330  
     354A      5.080667   355A      5.105938   356A      5.149780  
     357A      5.153059   358A      5.176347   359A      5.180050  
     360A      5.202766   361A      5.233511   362A      5.250496  
     363A      5.280672   364A      5.302215   365A      5.327736  
     366A      5.343430   367A      5.344493   368A      5.356579  
     369A      5.377138   370A      5.428258   371A      5.475836  
     372A      5.486790   373A      5.496624   374A      5.511847  
     375A      5.537941   376A      5.556214   377A      5.587876  
     378A      5.609150   379A      5.623798   380A      5.641868  
     381A      5.683540   382A      5.743623   383A      5.760441  
     384A      5.793829   385A      5.822162   386A      5.838001  
     387A      5.883689   388A      5.909815   389A      5.947747  
     390A      5.986846   391A      6.027914   392A      6.089406  
     393A      6.108812   394A      6.172936   395A      6.223074  
     396A      6.229975   397A      6.251440   398A      6.267182  
     399A      6.288482   400A      6.327810   401A      6.357325  
     402A      6.469420   403A      6.542449   404A      6.604198  
     405A      6.750732   406A      6.769649   407A      6.840576  
     408A      6.857365   409A      6.899977   410A      6.994376  
     411A     17.859695   412A     18.223558   413A     18.650836  
     414A     19.830005  

    Final Occupation by Irrep:
              A 
    DOCC [    17 ]

  Energy converged.

  @DF-RHF Final Energy:  -157.34989574500881

   => Energetics <=

    Nuclear Repulsion Energy =            131.6920242591636736
    One-Electron Energy =                -471.4956518736534008
    Two-Electron Energy =                 182.4537318694809471
    DFT Exchange-Correlation Energy =       0.0000000000000000
    Empirical Dispersion Energy =           0.0000000000000000
    PCM Polarization Energy =               0.0000000000000000
    EFP Energy =                            0.0000000000000000
    Total Energy =                       -157.3498957450088085



Properties will be evaluated at   0.000000,   0.000000,   0.000000 Bohr

Properties computed using the SCF density matrix

  Nuclear Dipole Moment: (a.u.)
     X:     0.2903      Y:     0.1351      Z:    -0.3558

  Electronic Dipole Moment: (a.u.)
     X:    -0.3080      Y:    -0.1435      Z:     0.3778

  Dipole Moment: (a.u.)
     X:    -0.0178      Y:    -0.0084      Z:     0.0220     Total:     0.0295

  Dipole Moment: (Debye)
     X:    -0.0451      Y:    -0.0212      Z:     0.0559     Total:     0.0749


*** tstop() called on cpu-6-2.local at Wed Jun 14 14:28:42 2017
Module time:
	user time   =      62.64 seconds =       1.04 minutes
	system time =       0.46 seconds =       0.01 minutes
	total time  =         63 seconds =       1.05 minutes
Total time:
	user time   =     394.70 seconds =       6.58 minutes
	system time =       3.77 seconds =       0.06 minutes
	total time  =        398 seconds =       6.63 minutes

  //>>>>>>>>>>>>>>>>>>>>>>>>>>>>>>>>>>>//
  //               DFMP2               //
  //<<<<<<<<<<<<<<<<<<<<<<<<<<<<<<<<<<<//

   => Loading Basis Set <=

    Name: (AUG-CC-PVTZ AUX)
    Role: RIFIT
    Keyword: DF_BASIS_MP2
    atoms 1-3, 5-6, 8-9, 11-13 entry H          line    29 file /cbio/jclab/home/chayas/anaconda/envs/py35/share/psi4/basis/aug-cc-pvtz-ri.gbs 
    atoms 4, 7, 10, 14         entry C          line   147 file /cbio/jclab/home/chayas/anaconda/envs/py35/share/psi4/basis/aug-cc-pvtz-ri.gbs 

	 --------------------------------------------------------
	                          DF-MP2                         
	      2nd-Order Density-Fitted Moller-Plesset Theory     
	              RMP2 Wavefunction,   1 Threads             
	                                                         
	        Rob Parrish, Justin Turney, Andy Simmonett,      
	           Ed Hohenstein, and C. David Sherrill          
	 --------------------------------------------------------

   => Auxiliary Basis Set <=

  Basis Set: (AUG-CC-PVTZ AUX)
    Blend: AUG-CC-PVTZ-RI
    Number of shells: 252
    Number of basis function: 884
    Number of Cartesian functions: 1094
    Spherical Harmonics?: true
    Max angular momentum: 4

	 --------------------------------------------------------
	                 NBF =   414, NAUX =   884
	 --------------------------------------------------------
	   CLASS    FOCC     OCC    AOCC    AVIR     VIR    FVIR
	   PAIRS       0      17      17     397     397       0
	 --------------------------------------------------------


         ------------------------------------------------------------
                                     CPHF                           
                                  Rob Parrish                       
         ------------------------------------------------------------

  ==> Geometry <==

    Molecular point group: c1
    Full point group: C1

    Geometry (in Angstrom), charge = 0, multiplicity = 1:

       Center              X                  Y                   Z               Mass       
    ------------   -----------------  -----------------  -----------------  -----------------
           H         -2.041761738605     0.241091928946    -1.183864676607     1.007825032070
           H         -1.652936836355     1.948501451083    -0.996074905133     1.007825032070
           H         -0.556159014767     0.888608575922    -1.876012930131     1.007825032070
           C         -1.237310256301     0.949888012208    -1.037900812782    12.000000000000
           H          0.310459700662     1.340012778676     0.395823704783     1.007825032070
           H         -1.175504297673     0.694043000853     1.091637924865     1.007825032070
           C         -0.488298802303     0.622339418309     0.258536218695    12.000000000000
           H         -0.432608400623    -1.441985050085     0.887588776799     1.007825032070
           H          0.016727307407    -1.187892253942    -0.798392300620     1.007825032070
           C          0.109848214176    -0.798565106570     0.207183588407    12.000000000000
           H          2.003494120135    -1.785288199122     0.564607228698     1.007825032070
           H          1.695143900459    -0.402535774217     1.610243147063     1.007825032070
           H          2.142790932202    -0.150417671315    -0.075098778079     1.007825032070
           C          1.589755122748    -0.785767880400     0.604057067598    12.000000000000

  Nuclear repulsion =  131.692024259163645
  Reference energy  = -157.349895745008808

  ==> Basis Set <==

  Basis Set: AUG-CC-PVTZ
    Blend: AUG-CC-PVTZ
    Number of shells: 146
    Number of basis function: 414
    Number of Cartesian functions: 470
    Spherical Harmonics?: true
    Max angular momentum: 3

  ==> CGRSolver (by Rob Parrish) <==

   Number of roots    =         1
   Preconditioning    =    JACOBI
   Convergence cutoff =     1E-06
   Maximum iterations =       100

  ==> CPHFRHamiltonian (by Rob Parrish) <== 

  ==> DFJK: Density-Fitted J/K Matrices <==

    J tasked:                  Yes
    K tasked:                  Yes
    wK tasked:                  No
    OpenMP threads:              1
    Integrals threads:           1
    Memory (MB):               715
    Algorithm:                Core
    Integral Cache:           NONE
    Schwarz Cutoff:          1E-12
    Fitting Condition:       1E-12

   => Auxiliary Basis Set <=

  Basis Set: (AUG-CC-PVTZ AUX)
    Blend: AUG-CC-PVTZ-JKFIT
    Number of shells: 260
    Number of basis function: 876
    Number of Cartesian functions: 1074
    Spherical Harmonics?: true
    Max angular momentum: 4

  ==> CPHF Iterations <==

  => Iterations <=

             Iter  Converged  Remaining    Residual
  CGR           1          0          1   8.380E-02
  CGR           2          0          1   1.349E-02
  CGR           3          0          1   3.424E-03
  CGR           4          0          1   8.421E-04
  CGR           5          0          1   1.519E-04
  CGR           6          0          1   3.307E-05
  CGR           7          0          1   6.688E-06
  CGR           8          0          1   1.382E-06
  CGR           9          1          0   2.123E-07

    CGRSolver converged.

  ==> DFCorrGrad: Density-Fitted Correlated Gradients <==

    OpenMP threads:              1
    Integrals threads:           1
    Memory (MB):               715
    Schwarz Cutoff:          0E+00
    Fitting Condition:       1E-12

   => Auxiliary Basis Set <=

  Basis Set: (AUG-CC-PVTZ AUX)
    Blend: AUG-CC-PVTZ-JKFIT
    Number of shells: 260
    Number of basis function: 876
    Number of Cartesian functions: 1074
    Spherical Harmonics?: true
    Max angular momentum: 4

	-----------------------------------------------------------
	 ==================> DF-MP2 Energies <==================== 
	-----------------------------------------------------------
	 Reference Energy          =    -157.3498957450088085 [Eh]
	 Singles Energy            =      -0.0000000000000000 [Eh]
	 Same-Spin Energy          =      -0.1653599053040076 [Eh]
	 Opposite-Spin Energy      =      -0.6399981652911926 [Eh]
	 Correlation Energy        =      -0.8053580705952001 [Eh]
	 Total Energy              =    -158.1552538156039986 [Eh]
	-----------------------------------------------------------
	 ================> DF-SCS-MP2 Energies <================== 
	-----------------------------------------------------------
	 SCS Same-Spin Scale       =       0.3333333333333333 [-]
	 SCS Opposite-Spin Scale   =       1.2000000000000000 [-]
	 SCS Same-Spin Energy      =      -0.0551199684346692 [Eh]
	 SCS Opposite-Spin Energy  =      -0.7679977983494310 [Eh]
	 SCS Correlation Energy    =      -0.8231177667841002 [Eh]
	 SCS Total Energy          =    -158.1730135117929024 [Eh]
	-----------------------------------------------------------


  -Total Gradient:
     Atom            X                  Y                   Z
    ------   -----------------  -----------------  -----------------
       1        0.002910524807     0.001843354752     0.002276986319
       2        0.002261484724    -0.002932498609     0.001899626533
       3       -0.001222923586     0.000206634770     0.004095921050
       4       -0.004918153790    -0.000329603775    -0.013433210232
       5       -0.001852122870    -0.003641230351    -0.002650654116
       6        0.000227719421    -0.003338215299    -0.004395763501
       7        0.004568629987     0.010865868278     0.014868350299
       8        0.002823282168     0.004816544343     0.000696717859
       9        0.001633240014     0.003592193932     0.003037361509
      10       -0.010737541126    -0.013970626823    -0.007231939810
      11       -0.003331130241     0.002429791067    -0.000582914635
      12       -0.002155318898    -0.001565146712    -0.003293571754
      13       -0.003182350842    -0.002180903358     0.001382616851
      14        0.012974660230     0.004203837784     0.003330473630


*** tstop() called on cpu-6-2.local at Wed Jun 14 14:32:58 2017
Module time:
	user time   =     316.19 seconds =       5.27 minutes
	system time =       3.17 seconds =       0.05 minutes
	total time  =        319 seconds =       5.32 minutes
Total time:
	user time   =     648.25 seconds =      10.80 minutes
	system time =       6.48 seconds =       0.11 minutes
	total time  =        654 seconds =      10.90 minutes

			-----------------------------------------
			 OPTKING 2.0: for geometry optimizations 
			  - R.A. King,  Bethel University        
			-----------------------------------------

	Previous internal coordinate definitions found.
	---Fragment 1 Geometry and Gradient---
	 H          -3.8583705146        0.4555977186       -2.2371800172
	 H          -3.1235979357        3.6821341121       -1.8823087785
	 H          -1.0509882242        1.6792268478       -3.5451506597
	 C          -2.3381775258        1.7950282000       -1.9613482893
	 H           0.5866838095        2.5322571663        0.7479983989
	 H          -2.2213811906        1.3115511961        2.0628967143
	 C          -0.9227510074        1.1760510623        0.4885626488
	 H          -0.8175114000       -2.7249568324        1.6772997068
	 H           0.0316100299       -2.2447910353       -1.5087427948
	 C           0.2075830410       -1.5090693507        0.3915202413
	 H           3.7860551959       -3.3737057646        1.0669530349
	 H           3.2033577277       -0.7606823720        3.0429185553
	 H           4.0492880219       -0.2842482043       -0.1419161235
	 C           3.0042018003       -1.4848860980        1.1415024264
	             0.0029105248        0.0018433548        0.0022769863
	             0.0022614847       -0.0029324986        0.0018996265
	            -0.0012229236        0.0002066348        0.0040959211
	            -0.0049181538       -0.0003296038       -0.0134332102
	            -0.0018521229       -0.0036412304       -0.0026506541
	             0.0002277194       -0.0033382153       -0.0043957635
	             0.0045686300        0.0108658683        0.0148683503
	             0.0028232822        0.0048165443        0.0006967179
	             0.0016332400        0.0035921939        0.0030373615
	            -0.0107375411       -0.0139706268       -0.0072319398
	            -0.0033311302        0.0024297911       -0.0005829146
	            -0.0021553189       -0.0015651467       -0.0032935718
	            -0.0031823508       -0.0021809034        0.0013826169
	             0.0129746602        0.0042038378        0.0033304736

	---Fragment 1 Intrafragment Coordinates---
	 - Coordinate -           - BOHR/RAD -       - ANG/DEG -
	 R(1,4)           =         2.044785	       1.082053
	 R(2,4)           =         2.045556	       1.082462
	 R(3,4)           =         2.044186	       1.081737
	 R(4,7)           =         2.896313	       1.532663
	 R(5,7)           =         2.045726	       1.082552
	 R(6,7)           =         2.045319	       1.082336
	 R(7,10)          =         2.914952	       1.542526
	 R(8,10)          =         2.045099	       1.082220
	 R(9,10)          =         2.045300	       1.082326
	 R(10,14)         =         2.895537	       1.532252
	 R(11,14)         =         2.045603	       1.082487
	 R(12,14)         =         2.044387	       1.081843
	 R(13,14)         =         2.044725	       1.082022
	 B(1,4,2)         =         1.900816	     108.908711
	 B(1,4,3)         =         1.903410	     109.057369
	 B(1,4,7)         =         1.914988	     109.720722
	 B(2,4,3)         =         1.900724	     108.903435
	 B(2,4,7)         =         1.930628	     110.616836
	 B(3,4,7)         =         1.912970	     109.605128
	 B(4,7,5)         =         1.903054	     109.036987
	 B(4,7,6)         =         1.903545	     109.065108
	 B(4,7,10)        =         1.937141	     110.990012
	 B(5,7,6)         =         1.903866	     109.083486
	 B(5,7,10)        =         1.905809	     109.194833
	 B(6,7,10)        =         1.910128	     109.442297
	 B(7,10,8)        =         1.909603	     109.412190
	 B(7,10,9)        =         1.905955	     109.203177
	 B(7,10,14)       =         1.937144	     110.990164
	 B(8,10,9)        =         1.904072	     109.095288
	 B(8,10,14)       =         1.903121	     109.040804
	 B(9,10,14)       =         1.903658	     109.071554
	 B(10,14,11)      =         1.930507	     110.609892
	 B(10,14,12)      =         1.915530	     109.751790
	 B(10,14,13)      =         1.913443	     109.632211
	 B(11,14,12)      =         1.900488	     108.889935
	 B(11,14,13)      =         1.900704	     108.902291
	 B(12,14,13)      =         1.902846	     109.025057
	 D(1,4,7,5)       =        -3.137274	    -179.752582
	 D(1,4,7,6)       =        -1.059906	     -60.728157
	 D(1,4,7,10)      =         1.045841	      59.922289
	 D(2,4,7,5)       =        -1.039800	     -59.576147
	 D(2,4,7,6)       =         1.037568	      59.448278
	 D(2,4,7,10)      =        -3.139870	    -179.901276
	 D(3,4,7,5)       =         1.056264	      60.519477
	 D(3,4,7,6)       =         3.133632	     179.543902
	 D(3,4,7,10)      =        -1.043806	     -59.805652
	 D(4,7,10,8)      =        -1.912243	    -109.563478
	 D(4,7,10,9)      =         0.170682	       9.779349
	 D(4,7,10,14)     =         2.269961	     130.059171
	 D(5,7,10,8)      =         2.272508	     130.205096
	 D(5,7,10,9)      =        -1.927752	    -110.452077
	 D(5,7,10,14)     =         0.171527	       9.827745
	 D(6,7,10,8)      =         0.189606	      10.863650
	 D(6,7,10,9)      =         2.272532	     130.206477
	 D(6,7,10,14)     =        -1.911375	    -109.513701
	 D(7,10,14,11)    =        -3.140222	    -179.921446
	 D(7,10,14,12)    =         1.045624	      59.909844
	 D(7,10,14,13)    =        -1.043955	     -59.814243
	 D(8,10,14,11)    =         1.038143	      59.481205
	 D(8,10,14,12)    =        -1.059197	     -60.687505
	 D(8,10,14,13)    =         3.134409	     179.588407
	 D(9,10,14,11)    =        -1.039580	     -59.563520
	 D(9,10,14,12)    =        -3.136919	    -179.732230
	 D(9,10,14,13)    =         1.056687	      60.543682

	Current energy   :      -158.1552538156

	Energy change for the previous step:
		Projected    :        -0.0046602666
		Actual       :        -0.0029361422

	Performing BFGS update.
	Previous computed or guess Hessian on step 1.
	Steps to be used in Hessian update: 1
	Adding user-defined constraint: Fragment 1; Coordinate 49:
		Value =     2.269961; Fixed value    =     2.268930
		Force =    -0.000541; Force constant =     0.525000
	Removing off-diagonal coupling between coordinate 49 and others.
	Taking RFO optimization step.
	Going to follow RFO solution 1.
	Using RFO vector 1.

	Determining step-restricting scale parameter for RS-RFO.
	Maximum step size allowed    0.10000

	 Iter      |step|        alpha        rfo_root  
	------------------------------------------------
	    0     0.16666       1.00000           1
	    1     0.13259       7.54753           1
	    2     0.11020      17.76842           1
	    3     0.10148      24.34443           1
	    4     0.10004      25.63949           1
	    5     0.10000      25.67516           1
	------------------------------------------------
	Norm of target step-size    0.10000
	Projected energy change by RFO approximation:        -0.0016350282

	Back-transformation to cartesian coordinates...
	Successfully converged to displaced geometry.

	--- Internal Coordinate Step in ANG or DEG, aJ/ANG or AJ/DEG ---
	 ---------------------------------------------------------------------------
	   Coordinate                Previous        Force       Change         New 
	   ----------                --------       ------       ------       ------
	    1 R(1,4)          =      1.082053     0.030306     0.005653     1.087707
	    2 R(2,4)          =      1.082462     0.028838     0.005131     1.087593
	    3 R(3,4)          =      1.081737     0.032586     0.006058     1.087795
	    4 R(4,7)          =      1.532663    -0.037732    -0.009971     1.522692
	    5 R(5,7)          =      1.082552     0.033916     0.006429     1.088980
	    6 R(6,7)          =      1.082336     0.030889     0.005699     1.088035
	    7 R(7,10)         =      1.542526    -0.014715    -0.004934     1.537592
	    8 R(8,10)         =      1.082220     0.031643     0.005826     1.088046
	    9 R(9,10)         =      1.082326     0.035053     0.006621     1.088948
	   10 R(10,14)        =      1.532252    -0.036247    -0.009613     1.522639
	   11 R(11,14)        =      1.082487     0.028799     0.005118     1.087605
	   12 R(12,14)        =      1.081843     0.031535     0.005862     1.087705
	   13 R(13,14)        =      1.082022     0.031101     0.005802     1.087823
	   14 B(1,4,2)        =    108.908711    -0.000152    -0.646536   108.262174
	   15 B(1,4,3)        =    109.057369    -0.000148    -0.810092   108.247277
	   16 B(1,4,7)        =    109.720722     0.000130     0.643509   110.364231
	   17 B(2,4,3)        =    108.903435    -0.000140    -0.609623   108.293812
	   18 B(2,4,7)        =    110.616836     0.000201     0.831057   111.447894
	   19 B(3,4,7)        =    109.605128     0.000100     0.527541   110.132669
	   20 B(4,7,5)        =    109.036987    -0.000046    -0.055825   108.981163
	   21 B(4,7,6)        =    109.065108    -0.000062     0.067254   109.132362
	   22 B(4,7,10)       =    110.990012     0.000266     1.093116   112.083127
	   23 B(5,7,6)        =    109.083486    -0.000095    -1.242704   107.840781
	   24 B(5,7,10)       =    109.194833    -0.000058    -0.144278   109.050554
	   25 B(6,7,10)       =    109.442297    -0.000010     0.214075   109.656372
	   26 B(7,10,8)       =    109.412190    -0.000009     0.230335   109.642526
	   27 B(7,10,9)       =    109.203177    -0.000058    -0.147249   109.055929
	   28 B(7,10,14)      =    110.990164     0.000266     1.093334   112.083498
	   29 B(8,10,9)       =    109.095288    -0.000096    -1.249107   107.846181
	   30 B(8,10,14)      =    109.040804    -0.000060     0.079468   109.120272
	   31 B(9,10,14)      =    109.071554    -0.000049    -0.075166   108.996388
	   32 B(10,14,11)     =    110.609892     0.000204     0.838920   111.448812
	   33 B(10,14,12)     =    109.751790     0.000124     0.614951   110.366741
	   34 B(10,14,13)     =    109.632211     0.000097     0.512575   110.144787
	   35 B(11,14,12)     =    108.889935    -0.000150    -0.633979   108.255957
	   36 B(11,14,13)     =    108.902291    -0.000141    -0.609330   108.292961
	   37 B(12,14,13)     =    109.025057    -0.000143    -0.786932   108.238126
	   38 D(1,4,7,5)      =   -179.752582     0.000013     0.470735  -179.281847
	   39 D(1,4,7,6)      =    -60.728157    -0.000028    -1.020892   -61.749049
	   40 D(1,4,7,10)     =     59.922289    -0.000001    -0.004416    59.917873
	   41 D(2,4,7,5)      =    -59.576147     0.000018     0.622365   -58.953783
	   42 D(2,4,7,6)      =     59.448278    -0.000023    -0.869262    58.579015
	   43 D(2,4,7,10)     =   -179.901276     0.000004     0.147214  -179.754063
	   44 D(3,4,7,5)      =     60.519477     0.000022     0.739449    61.258926
[...]
  CGR           5          0          1   1.510E-04
  CGR           6          0          1   3.316E-05
  CGR           7          0          1   6.365E-06
  CGR           8          0          1   1.278E-06
  CGR           9          1          0   1.846E-07

    CGRSolver converged.

  ==> DFCorrGrad: Density-Fitted Correlated Gradients <==

    OpenMP threads:              1
    Integrals threads:           1
    Memory (MB):               715
    Schwarz Cutoff:          0E+00
    Fitting Condition:       1E-12

   => Auxiliary Basis Set <=

  Basis Set: (AUG-CC-PVTZ AUX)
    Blend: AUG-CC-PVTZ-JKFIT
    Number of shells: 260
    Number of basis function: 876
    Number of Cartesian functions: 1074
    Spherical Harmonics?: true
    Max angular momentum: 4

	-----------------------------------------------------------
	 ==================> DF-MP2 Energies <==================== 
	-----------------------------------------------------------
	 Reference Energy          =    -157.3510550346719867 [Eh]
	 Singles Energy            =      -0.0000000000000002 [Eh]
	 Same-Spin Energy          =      -0.1654108191988408 [Eh]
	 Opposite-Spin Energy      =      -0.6400152110412073 [Eh]
	 Correlation Energy        =      -0.8054260302400483 [Eh]
	 Total Energy              =    -158.1564810649120432 [Eh]
	-----------------------------------------------------------
	 ================> DF-SCS-MP2 Energies <================== 
	-----------------------------------------------------------
	 SCS Same-Spin Scale       =       0.3333333333333333 [-]
	 SCS Opposite-Spin Scale   =       1.2000000000000000 [-]
	 SCS Same-Spin Energy      =      -0.0551369397329469 [Eh]
	 SCS Opposite-Spin Energy  =      -0.7680182532494487 [Eh]
	 SCS Correlation Energy    =      -0.8231551929823959 [Eh]
	 SCS Total Energy          =    -158.1742102276543847 [Eh]
	-----------------------------------------------------------


  -Total Gradient:
     Atom            X                  Y                   Z
    ------   -----------------  -----------------  -----------------
       1        0.000016300908     0.000008177730     0.000008546313
       2        0.000007713484    -0.000020716187    -0.000004819733
       3       -0.000023605934    -0.000000744802     0.000010435603
       4        0.001477937796     0.000657409528    -0.000673899504
       5       -0.000017998723    -0.000022025898     0.000018072589
       6        0.000008801471     0.000009658743    -0.000018277173
       7       -0.001849482862    -0.000789939043     0.000290361998
       8        0.000018097533     0.000003143659    -0.000014651648
       9       -0.000018852566     0.000005376134     0.000028553468
      10       -0.000036795039    -0.000089017083     0.002030387182
      11       -0.000005348443     0.000022204032     0.000001249606
      12       -0.000009634348    -0.000005486253    -0.000018459753
      13       -0.000003159306    -0.000011019718     0.000022219527
      14        0.000436026025     0.000232979160    -0.001679718477


*** tstop() called on cpu-6-2.local at Wed Jun 14 14:53:26 2017
Module time:
	user time   =     294.19 seconds =       4.90 minutes
	system time =       2.97 seconds =       0.05 minutes
	total time  =        297 seconds =       4.95 minutes
Total time:
	user time   =    1863.45 seconds =      31.06 minutes
	system time =      19.25 seconds =       0.32 minutes
	total time  =       1882 seconds =      31.37 minutes

			-----------------------------------------
			 OPTKING 2.0: for geometry optimizations 
			  - R.A. King,  Bethel University        
			-----------------------------------------

	Previous internal coordinate definitions found.
	---Fragment 1 Geometry and Gradient---
	 H          -3.8832444536        0.4560605767       -2.2760358781
	 H          -3.1692386943        3.6822095589       -1.8848672635
	 H          -1.0916677714        1.7043733265       -3.5741137893
	 C          -2.3556482980        1.7958147138       -1.9540120632
	 H           0.5678939041        2.5493147596        0.7198372520
	 H          -2.1839291740        1.3570102089        2.0786584926
	 C          -0.9340526213        1.1621286015        0.4551941760
	 H          -0.8279156390       -2.7573348966        1.6258914551
	 H           0.0680618392       -2.2536411803       -1.5020484270
	 C           0.2351860207       -1.4870643330        0.4044088593
	 H           3.8003260534       -3.3887872061        1.1086212478
	 H           3.2444024715       -0.7530935110        3.0617986502
	 H           4.0940891790       -0.3084023479       -0.1188416212
	 C           3.0025465927       -1.4950423675        1.1583303206
	             0.0000163009        0.0000081777        0.0000085463
	             0.0000077135       -0.0000207162       -0.0000048197
	            -0.0000236059       -0.0000007448        0.0000104356
	             0.0014779378        0.0006574095       -0.0006738995
	            -0.0000179987       -0.0000220259        0.0000180726
	             0.0000088015        0.0000096587       -0.0000182772
	            -0.0018494829       -0.0007899390        0.0002903620
	             0.0000180975        0.0000031437       -0.0000146516
	            -0.0000188526        0.0000053761        0.0000285535
	            -0.0000367950       -0.0000890171        0.0020303872
	            -0.0000053484        0.0000222040        0.0000012496
	            -0.0000096343       -0.0000054863       -0.0000184598
	            -0.0000031593       -0.0000110197        0.0000222195
	             0.0004360260        0.0002329792       -0.0016797185

	---Fragment 1 Intrafragment Coordinates---
	 - Coordinate -           - BOHR/RAD -       - ANG/DEG -
	 R(1,4)           =         2.057229	       1.088639
	 R(2,4)           =         2.055528	       1.087739
	 R(3,4)           =         2.056876	       1.088452
	 R(4,7)           =         2.868234	       1.517804
	 R(5,7)           =         2.061593	       1.090948
	 R(6,7)           =         2.058108	       1.089104
	 R(7,10)          =         2.896191	       1.532598
	 R(8,10)          =         2.058104	       1.089102
	 R(9,10)          =         2.061589	       1.090946
	 R(10,14)         =         2.868230	       1.517802
	 R(11,14)         =         2.055527	       1.087738
	 R(12,14)         =         2.057225	       1.088636
	 R(13,14)         =         2.056878	       1.088453
	 B(1,4,2)         =         1.884955	     107.999949
	 B(1,4,3)         =         1.879751	     107.701798
	 B(1,4,7)         =         1.934389	     110.832340
	 B(2,4,3)         =         1.886539	     108.090722
	 B(2,4,7)         =         1.950531	     111.757177
	 B(3,4,7)         =         1.925381	     110.316183
	 B(4,7,5)         =         1.896793	     108.678246
	 B(4,7,6)         =         1.918413	     109.916943
	 B(4,7,10)        =         1.968668	     112.796372
	 B(5,7,6)         =         1.851949	     106.108878
	 B(5,7,10)        =         1.900344	     108.881690
	 B(6,7,10)        =         1.923696	     110.219684
	 B(7,10,8)        =         1.923698	     110.219800
	 B(7,10,9)        =         1.900343	     108.881644
	 B(7,10,14)       =         1.968664	     112.796127
	 B(8,10,9)        =         1.851951	     106.108968
	 B(8,10,14)       =         1.918414	     109.917025
	 B(9,10,14)       =         1.896794	     108.678267
	 B(10,14,11)      =         1.950528	     111.757010
	 B(10,14,12)      =         1.934388	     110.832270
	 B(10,14,13)      =         1.925379	     110.316110
	 B(11,14,12)      =         1.884955	     107.999989
	 B(11,14,13)      =         1.886543	     108.090957
	 B(12,14,13)      =         1.879752	     107.701850
	 D(1,4,7,5)       =        -3.134532	    -179.595478
	 D(1,4,7,6)       =        -1.114796	     -63.873109
	 D(1,4,7,10)      =         1.039608	      59.565159
	 D(2,4,7,5)       =        -1.031044	     -59.074467
	 D(2,4,7,6)       =         0.988692	      56.647902
	 D(2,4,7,10)      =        -3.140089	    -179.913830
	 D(3,4,7,5)       =         1.068300	      61.209104
	 D(3,4,7,6)       =         3.088037	     176.931472
	 D(3,4,7,10)      =        -1.040744	     -59.630259
	 D(4,7,10,8)      =        -1.857873	    -106.448276
	 D(4,7,10,9)      =         0.166825	       9.558395
	 D(4,7,10,14)     =         2.273840	     130.281460
	 D(5,7,10,8)      =         2.318295	     132.828495
	 D(5,7,10,9)      =        -1.940192	    -111.164833
	 D(5,7,10,14)     =         0.166823	       9.558232
	 D(6,7,10,8)      =         0.293599	      16.821970
	 D(6,7,10,9)      =         2.318297	     132.828641
	 D(6,7,10,14)     =        -1.857873	    -106.448294
	 D(7,10,14,11)    =        -3.140076	    -179.913117
	 D(7,10,14,12)    =         1.039623	      59.565982
	 D(7,10,14,13)    =        -1.040730	     -59.629409
	 D(8,10,14,11)    =         0.988704	      56.648578
	 D(8,10,14,12)    =        -1.114782	     -63.872323
	 D(8,10,14,13)    =         3.088051	     176.932286
	 D(9,10,14,11)    =        -1.031035	     -59.073955
	 D(9,10,14,12)    =        -3.134522	    -179.594856
	 D(9,10,14,13)    =         1.068312	      61.209752

	Current energy   :      -158.1564810649

	Energy change for the previous step:
		Projected    :        -0.0000128623
		Actual       :        -0.0000027788

	Performing BFGS update.
	Previous computed or guess Hessian on step 1.
	Steps to be used in Hessian update: 5 4
	Adding user-defined constraint: Fragment 1; Coordinate 49:
		Value =     2.273840; Fixed value    =     2.268930
		Force =    -0.003069; Force constant =     0.625000
	Removing off-diagonal coupling between coordinate 49 and others.
	Taking RFO optimization step.
	Going to follow RFO solution 1.
	Rejecting RFO root 1 because normalization gives large value.
	Rejecting RFO root 2 because normalization gives large value.
	Using RFO vector 3.
	Norm of target step-size    0.00243
	Projected energy change by RFO approximation:        -0.0000001624

	Back-transformation to cartesian coordinates...
	Successfully converged to displaced geometry.

	--- Internal Coordinate Step in ANG or DEG, aJ/ANG or AJ/DEG ---
	 ---------------------------------------------------------------------------
	   Coordinate                Previous        Force       Change         New 
	   ----------                --------       ------       ------       ------
	    1 R(1,4)          =      1.088639     0.000155     0.000033     1.088671
	    2 R(2,4)          =      1.087739     0.000183     0.000040     1.087779
	    3 R(3,4)          =      1.088452     0.000187     0.000044     1.088495
	    4 R(4,7)          =      1.517804     0.000299     0.000061     1.517865
	    5 R(5,7)          =      1.090948     0.000211     0.000025     1.090973
	    6 R(6,7)          =      1.089104     0.000155     0.000033     1.089137
	    7 R(7,10)         =      1.532598    -0.000020     0.000009     1.532607
	    8 R(8,10)         =      1.089102     0.000165     0.000035     1.089137
	    9 R(9,10)         =      1.090946     0.000221     0.000027     1.090973
	   10 R(10,14)        =      1.517802     0.000310     0.000065     1.517867
	   11 R(11,14)        =      1.087738     0.000186     0.000041     1.087779
	   12 R(12,14)        =      1.088636     0.000166     0.000035     1.088671
	   13 R(13,14)        =      1.088453     0.000180     0.000042     1.088495
	   14 B(1,4,2)        =    107.999949    -0.000000    -0.000557   107.999392
	   15 B(1,4,3)        =    107.701798     0.000000     0.001793   107.703590
	   16 B(1,4,7)        =    110.832340     0.000001     0.005981   110.838322
	   17 B(2,4,3)        =    108.090722     0.000001    -0.001474   108.089248
	   18 B(2,4,7)        =    111.757177    -0.000000    -0.002744   111.754433
	   19 B(3,4,7)        =    110.316183    -0.000001    -0.002959   110.313224
	   20 B(4,7,5)        =    108.678246    -0.000002    -0.002125   108.676121
	   21 B(4,7,6)        =    109.916943     0.000001    -0.002825   109.914118
	   22 B(4,7,10)       =    112.796372     0.000001     0.001537   112.797910
	   23 B(5,7,6)        =    106.108878     0.000001     0.009339   106.118217
	   24 B(5,7,10)       =    108.881690     0.000000     0.009013   108.890703
	   25 B(6,7,10)       =    110.219684    -0.000001    -0.014121   110.205563
	   26 B(7,10,8)       =    110.219800    -0.000001    -0.014335   110.205465
	   27 B(7,10,9)       =    108.881644     0.000000     0.009108   108.890752
	   28 B(7,10,14)      =    112.796127     0.000001     0.001773   112.797901
	   29 B(8,10,9)       =    106.108968     0.000001     0.009286   106.118254
	   30 B(8,10,14)      =    109.917025     0.000001    -0.002924   109.914101
	   31 B(9,10,14)      =    108.678267    -0.000002    -0.002101   108.676166
	   32 B(10,14,11)     =    111.757010    -0.000000    -0.002569   111.754440
	   33 B(10,14,12)     =    110.832270     0.000001     0.005977   110.838248
	   34 B(10,14,13)     =    110.316110    -0.000001    -0.002933   110.313178
	   35 B(11,14,12)     =    107.999989    -0.000000    -0.000587   107.999402
	   36 B(11,14,13)     =    108.090957     0.000001    -0.001660   108.089297
	   37 B(12,14,13)     =    107.701850     0.000000     0.001801   107.703651
	   38 D(1,4,7,5)      =   -179.595478    -0.000000    -0.025772  -179.621250
	   39 D(1,4,7,6)      =    -63.873109    -0.000000    -0.017344   -63.890454
	   40 D(1,4,7,10)     =     59.565159    -0.000000    -0.036667    59.528492
	   41 D(2,4,7,5)      =    -59.074467     0.000000    -0.024225   -59.098692
	   42 D(2,4,7,6)      =     56.647902     0.000000    -0.015797    56.632105
	   43 D(2,4,7,10)     =   -179.913830     0.000000    -0.035120  -179.948950
	   44 D(3,4,7,5)      =     61.209104    -0.000000    -0.029910    61.179194
	   45 D(3,4,7,6)      =    176.931472    -0.000000    -0.021482   176.909990
	   46 D(3,4,7,10)     =    -59.630259    -0.000000    -0.040805   -59.671065
	   47 D(4,7,10,8)     =   -106.448276    -0.000000    -0.016813  -106.465089
	   48 D(4,7,10,9)     =      9.558395    -0.000000    -0.008413     9.549982
	   49 D(4,7,10,14)    =    130.281460    -0.000000    -0.003614   130.277846
	   50 D(5,7,10,8)     =    132.828495     0.000000    -0.021363   132.807132
	   51 D(5,7,10,9)     =   -111.164833     0.000000    -0.012964  -111.177797
	   52 D(5,7,10,14)    =      9.558232    -0.000000    -0.008165     9.550067
	   53 D(6,7,10,8)     =     16.821970     0.000000    -0.029892    16.792078
	   54 D(6,7,10,9)     =    132.828641     0.000000    -0.021492   132.807149
	   55 D(6,7,10,14)    =   -106.448294    -0.000000    -0.016693  -106.464987
	   56 D(7,10,14,11)   =   -179.913117     0.000000    -0.036631  -179.949748
	   57 D(7,10,14,12)   =     59.565982    -0.000000    -0.038255    59.527727
	   58 D(7,10,14,13)   =    -59.629409    -0.000000    -0.042419   -59.671828
	   59 D(8,10,14,11)   =     56.648578     0.000000    -0.017124    56.631454
	   60 D(8,10,14,12)   =    -63.872323    -0.000000    -0.018748   -63.891071
	   61 D(8,10,14,13)   =    176.932286    -0.000000    -0.022912   176.909374
	   62 D(9,10,14,11)   =    -59.073955     0.000000    -0.025448   -59.099402
	   63 D(9,10,14,12)   =   -179.594856    -0.000000    -0.027072  -179.621928
	   64 D(9,10,14,13)   =     61.209752    -0.000000    -0.031235    61.178517
	 ---------------------------------------------------------------------------
	Successfully symmetrized geometry.
	 Forces used to impose fixed constraints are not included.
	  Forces zeroed: 49 

  ==> Convergence Check <==

  Measures of convergence in internal coordinates in au.
  Criteria marked as inactive (o), active & met (*), and active & unmet ( ).
  ---------------------------------------------------------------------------------------------
   Step     Total Energy     Delta E     MAX Force     RMS Force      MAX Disp      RMS Disp   
  ---------------------------------------------------------------------------------------------
    Convergence Criteria    1.00e-06 *    3.00e-04 *             o    1.20e-03 *             o
  ---------------------------------------------------------------------------------------------
      6    -158.15648106   -2.78e-06      3.77e-05 *    1.38e-05 o    7.40e-04 *    3.04e-04 o  ~
  ---------------------------------------------------------------------------------------------


  **** Optimization is complete! (in 6 steps) ****

  ==> Optimization Summary <==

  Measures of convergence in internal coordinates in au.
  --------------------------------------------------------------------------------------------------------------- ~
   Step         Total Energy             Delta E       MAX Force       RMS Force        MAX Disp        RMS Disp  ~
  --------------------------------------------------------------------------------------------------------------- ~
      1    -158.152317673442   -158.152317673442      0.01262445      0.00551378      0.02593082      0.01251272  ~
      2    -158.155253815604     -0.002936142162      0.00457981      0.00215669      0.03453429      0.01251500  ~
      3    -158.156220179187     -0.000966363583      0.00157313      0.00062079      0.04886977      0.01252978  ~
      4    -158.156458512126     -0.000238332938      0.00094403      0.00018713      0.01666802      0.00607962  ~
      5    -158.156478286068     -0.000019773942      0.00008584      0.00003848      0.00392021      0.00127034  ~
      6    -158.156481064912     -0.000002778844      0.00003768      0.00001407      0.00074035      0.00030353  ~
  --------------------------------------------------------------------------------------------------------------- ~

	Writing optimization data to binary file.
	Final energy is   -158.1564810649120
	Final (previous) structure:
	Cartesian Geometry (in Angstrom)
	    H    -2.0549244602   0.2413368629  -1.2044263126
	    H    -1.6770888856   1.9485413758  -0.9974287970
	    H    -0.5776857040   0.9019155193  -1.8913395582
	    C    -1.2465553907   0.9503042174  -1.0340186492
	    H     0.3005165110   1.3490392683   0.3809214676
	    H    -1.1556855440   0.7180988744   1.0999786987
	    C    -0.4942793588   0.6149719694   0.2408783834
	    H    -0.4381140868  -1.4591187837   0.8603847017
	    H     0.0360167741  -1.1925755490  -0.7948497938
	    C     0.1244550820  -0.7869205527   0.2140039513
	    H     2.0110459326  -1.7932689542   0.5866570973
	    H     1.7168638434  -0.3985199220   1.6202340630
	    H     2.1664986835  -0.1631994936  -0.0628882774
	    C     1.5888792246  -0.7911423468   0.6129620057
	Saving final (previous) structure.
			--------------------------
			 OPTKING Finished Execution 
			--------------------------

    Final optimized geometry and variables:
    Molecular point group: c1
    Full point group: C1

    Geometry (in Angstrom), charge = 0, multiplicity = 1:

    H           -2.054924460233     0.241336862927    -1.204426312632
    H           -1.677088885618     1.948541375799    -0.997428797048
    H           -0.577685703968     0.901915519338    -1.891339558205
    C           -1.246555390735     0.950304217379    -1.034018649163
    H            0.300516510969     1.349039268278     0.380921467649
    H           -1.155685544040     0.718098874367     1.099978698702
    C           -0.494279358835     0.614971969379     0.240878383398
    H           -0.438114086806    -1.459118783739     0.860384701667
    H            0.036016774087    -1.192575548961    -0.794849793764
    C            0.124455081955    -0.786920552748     0.214003951307
    H            2.011045932649    -1.793268954222     0.586657097312
    H            1.716863843397    -0.398519921978     1.620234062965
    H            2.166498683458    -0.163199493605    -0.062888277354
    C            1.588879224584    -0.791142346766     0.612962005699

	Cleaning optimization helper files.

*** Psi4 exiting successfully. Buy a developer a beer!
