
    -----------------------------------------------------------------------
          Psi4: An Open-Source Ab Initio Electronic Structure Package
                               Psi4 1.1 release

                         Git: Rev {HEAD} add49b9 


    R. M. Parrish, L. A. Burns, D. G. A. Smith, A. C. Simmonett,
    A. E. DePrince III, E. G. Hohenstein, U. Bozkaya, A. Yu. Sokolov,
    R. Di Remigio, R. M. Richard, J. F. Gonthier, A. M. James,
    H. R. McAlexander, A. Kumar, M. Saitow, X. Wang, B. P. Pritchard,
    P. Verma, H. F. Schaefer III, K. Patkowski, R. A. King, E. F. Valeev,
    F. A. Evangelista, J. M. Turney, T. D. Crawford, and C. D. Sherrill,
    J. Chem. Theory Comput. in press (2017).
    (doi: 10.1021/acs.jctc.7b00174)

    -----------------------------------------------------------------------


    Psi4 started on: Wednesday, 14 June 2017 02:24PM

    Process ID:  27299
    PSIDATADIR: /cbio/jclab/home/chayas/anaconda/envs/py35/share/psi4
    Memory:     500.0 MiB
    Threads:    1
    
  ==> Input File <==

--------------------------------------------------------------------------

memory 1000 mb

molecule butane {
  symmetry C1
  0 1 
  H      2.013   0.870   -7.234
  H      1.736   2.345   -8.129
  H      1.611   0.799   -8.932
  C      2.133   1.352   -8.181
  H      3.751   1.898   -9.485
  H      4.154   1.970   -7.786
  C      3.631   1.416   -8.537
  H      3.665   -0.647   -7.940
  H      4.104   -0.384   -9.610
  C      4.203   -0.012   -8.612
  H      6.088   -0.983   -8.270
  H      5.791   0.381   -7.220
  H      6.230   0.644   -8.890
  C      5.691   0.009   -8.218
  units Angstrom
}

dih_string = "14 10 7 4 210"
set optking fixed_dihedral = $dih_string

optimize('MP2/aug-cc-pvtz')
--------------------------------------------------------------------------

  Memory set to 953.674 MiB by Python driver.
gradient() will perform analytic gradient computation.

*** tstart() called on gpu-2-12.local
*** at Wed Jun 14 14:24:09 2017

    SCF Algorithm Type (re)set to DF.

*** tstart() called on gpu-2-12.local
*** at Wed Jun 14 14:24:09 2017

   => Loading Basis Set <=

    Name: AUG-CC-PVTZ
    Role: ORBITAL
    Keyword: BASIS
    atoms 1-3, 5-6, 8-9, 11-13 entry H          line    34 file /cbio/jclab/home/chayas/anaconda/envs/py35/share/psi4/basis/aug-cc-pvtz.gbs 
    atoms 4, 7, 10, 14         entry C          line   221 file /cbio/jclab/home/chayas/anaconda/envs/py35/share/psi4/basis/aug-cc-pvtz.gbs 


         ---------------------------------------------------------
                                   SCF
            by Justin Turney, Rob Parrish, and Andy Simmonett
                              RHF Reference
                        1 Threads,    953 MiB Core
         ---------------------------------------------------------

  ==> Geometry <==

    Molecular point group: c1
    Full point group: C1

    Geometry (in Angstrom), charge = 0, multiplicity = 1:

       Center              X                  Y                   Z               Mass       
    ------------   -----------------  -----------------  -----------------  -----------------
           H         -1.901465294236     0.179088381202     1.146510022084     1.007825032070
           H         -2.178465294236     1.654088381202     0.251510022084     1.007825032070
           H         -2.303465294236     0.108088381202    -0.551489977916     1.007825032070
           C         -1.781465294236     0.661088381202     0.199510022084    12.000000000000
           H         -0.163465294236     1.207088381202    -1.104489977916     1.007825032070
           H          0.239534705764     1.279088381202     0.594510022084     1.007825032070
           C         -0.283465294236     0.725088381202    -0.156489977916    12.000000000000
           H         -0.249465294236    -1.337911618798     0.440510022084     1.007825032070
           H          0.189534705764    -1.074911618798    -1.229489977916     1.007825032070
           C          0.288534705764    -0.702911618798    -0.231489977916    12.000000000000
           H          2.173534705764    -1.673911618798     0.110510022084     1.007825032070
           H          1.876534705764    -0.309911618798     1.160510022084     1.007825032070
           H          2.315534705764    -0.046911618798    -0.509489977916     1.007825032070
           C          1.776534705764    -0.681911618798     0.162510022084    12.000000000000

  Running in c1 symmetry.

  Rotational constants: A =      0.71031  B =      0.12636  C =      0.11998 [cm^-1]
  Rotational constants: A =  21294.56953  B =   3788.12651  C =   3596.77369 [MHz]
  Nuclear repulsion =  132.014523488558950

  Charge       = 0
  Multiplicity = 1
  Electrons    = 34
  Nalpha       = 17
  Nbeta        = 17

  ==> Algorithm <==

  SCF Algorithm Type is DF.
  DIIS enabled.
  MOM disabled.
  Fractional occupation disabled.
  Guess Type is SAD.
  Energy threshold   = 1.00e-10
  Density threshold  = 1.00e-10
  Integral threshold = 0.00e+00

  ==> Primary Basis <==

  Basis Set: AUG-CC-PVTZ
    Blend: AUG-CC-PVTZ
    Number of shells: 146
    Number of basis function: 414
    Number of Cartesian functions: 470
    Spherical Harmonics?: true
    Max angular momentum: 3

   => Loading Basis Set <=

    Name: (AUG-CC-PVTZ AUX)
    Role: JKFIT
    Keyword: DF_BASIS_SCF
    atoms 1-3, 5-6, 8-9, 11-13 entry H          line    69 file /cbio/jclab/home/chayas/anaconda/envs/py35/share/psi4/basis/aug-cc-pvtz-jkfit.gbs 
    atoms 4, 7, 10, 14         entry C          line   161 file /cbio/jclab/home/chayas/anaconda/envs/py35/share/psi4/basis/aug-cc-pvtz-jkfit.gbs 

  ==> Pre-Iterations <==

   -------------------------------------------------------
    Irrep   Nso     Nmo     Nalpha   Nbeta   Ndocc  Nsocc
   -------------------------------------------------------
     A        414     414       0       0       0       0
   -------------------------------------------------------
    Total     414     414      17      17      17       0
   -------------------------------------------------------

  ==> Integral Setup <==

  ==> DFJK: Density-Fitted J/K Matrices <==

    J tasked:                  Yes
    K tasked:                  Yes
    wK tasked:                  No
    OpenMP threads:              1
    Integrals threads:           1
    Memory (MB):               715
    Algorithm:                Core
    Integral Cache:           NONE
    Schwarz Cutoff:          1E-12
    Fitting Condition:       1E-12

   => Auxiliary Basis Set <=

  Basis Set: (AUG-CC-PVTZ AUX)
    Blend: AUG-CC-PVTZ-JKFIT
    Number of shells: 260
    Number of basis function: 876
    Number of Cartesian functions: 1074
    Spherical Harmonics?: true
    Max angular momentum: 4

  Minimum eigenvalue in the overlap matrix is 8.3835146049E-06.
  Using Symmetric Orthogonalization.

  SCF Guess: Superposition of Atomic Densities via on-the-fly atomic UHF.

  ==> Iterations <==

                           Total Energy        Delta E     RMS |[F,P]|

   @DF-RHF iter   0:  -159.27839446773456   -1.59278e+02   9.92420e-03 
   @DF-RHF iter   1:  -157.26005775324870    2.01834e+00   8.05596e-04 
   @DF-RHF iter   2:  -157.34096346278034   -8.09057e-02   2.49937e-04 DIIS
   @DF-RHF iter   3:  -157.34847473624532   -7.51127e-03   9.65936e-05 DIIS
   @DF-RHF iter   4:  -157.34967535566187   -1.20062e-03   1.91257e-05 DIIS
   @DF-RHF iter   5:  -157.34974067407632   -6.53184e-05   3.91895e-06 DIIS
   @DF-RHF iter   6:  -157.34974421400355   -3.53993e-06   8.49101e-07 DIIS
   @DF-RHF iter   7:  -157.34974435853425   -1.44531e-07   2.22461e-07 DIIS
   @DF-RHF iter   8:  -157.34974436647590   -7.94165e-09   5.20149e-08 DIIS
   @DF-RHF iter   9:  -157.34974436701322   -5.37312e-10   1.14097e-08 DIIS
   @DF-RHF iter  10:  -157.34974436704604   -3.28271e-11   2.21794e-09 DIIS
   @DF-RHF iter  11:  -157.34974436704641   -3.69482e-13   5.81700e-10 DIIS
   @DF-RHF iter  12:  -157.34974436704869   -2.27374e-12   1.75637e-10 DIIS
   @DF-RHF iter  13:  -157.34974436704653    2.16005e-12   3.41661e-11 DIIS

  ==> Post-Iterations <==

    Orbital Energies (a.u.)
    -----------------------

    Doubly Occupied:                                                      

       1A    -11.206199     2A    -11.205587     3A    -11.199162  
       4A    -11.199137     5A     -1.070871     6A     -0.980938  
       7A     -0.862533     8A     -0.794588     9A     -0.645214  
      10A     -0.587545    11A     -0.586524    12A     -0.562426  
      13A     -0.513710    14A     -0.506975    15A     -0.471428  
      16A     -0.468896    17A     -0.441478  

    Virtual:                                                              

      18A      0.032249    19A      0.037408    20A      0.039405  
      21A      0.040159    22A      0.056943    23A      0.060096  
      24A      0.060276    25A      0.061387    26A      0.070758  
      27A      0.083064    28A      0.113612    29A      0.116539  
      30A      0.124239    31A      0.127599    32A      0.134532  
      33A      0.136213    34A      0.141947    35A      0.142246  
      36A      0.147125    37A      0.154424    38A      0.158885  
      39A      0.167786    40A      0.171128    41A      0.201440  
      42A      0.208311    43A      0.214139    44A      0.234414  
      45A      0.237893    46A      0.244339    47A      0.264623  
      48A      0.274721    49A      0.281506    50A      0.292724  
      51A      0.296845    52A      0.308269    53A      0.309310  
      54A      0.330596    55A      0.331559    56A      0.339697  
      57A      0.344811    58A      0.353488    59A      0.361898  
      60A      0.361988    61A      0.365789    62A      0.375039  
      63A      0.380245    64A      0.382872    65A      0.386413  
      66A      0.392550    67A      0.393736    68A      0.400207  
      69A      0.414792    70A      0.418818    71A      0.429118  
      72A      0.430938    73A      0.443945    74A      0.446886  
      75A      0.447090    76A      0.454852    77A      0.463322  
      78A      0.475763    79A      0.475946    80A      0.483492  
      81A      0.488431    82A      0.493685    83A      0.500251  
      84A      0.505635    85A      0.514273    86A      0.523185  
      87A      0.528002    88A      0.530648    89A      0.534891  
      90A      0.549677    91A      0.552338    92A      0.566483  
      93A      0.571551    94A      0.571647    95A      0.577923  
      96A      0.586314    97A      0.593050    98A      0.615594  
      99A      0.617214   100A      0.621853   101A      0.645765  
     102A      0.662563   103A      0.669448   104A      0.683463  
     105A      0.686227   106A      0.701993   107A      0.762023  
     108A      0.784585   109A      0.805961   110A      0.813002  
     111A      0.829503   112A      0.831768   113A      0.839645  
     114A      0.845954   115A      0.857885   116A      0.861989  
     117A      0.862034   118A      0.864576   119A      0.886525  
     120A      0.888301   121A      0.895860   122A      0.901893  
     123A      0.904952   124A      0.908120   125A      0.922142  
     126A      0.928434   127A      0.940193   128A      0.949754  
     129A      0.954571   130A      0.956501   131A      0.965312  
     132A      0.982686   133A      0.985105   134A      0.993195  
     135A      0.995507   136A      1.003893   137A      1.016305  
     138A      1.030143   139A      1.043711   140A      1.051133  
     141A      1.052142   142A      1.089942   143A      1.102137  
     144A      1.103808   145A      1.113082   146A      1.120353  
     147A      1.127023   148A      1.135085   149A      1.143649  
     150A      1.158133   151A      1.162398   152A      1.173368  
     153A      1.175222   154A      1.196211   155A      1.197124  
     156A      1.209756   157A      1.221984   158A      1.237141  
     159A      1.243015   160A      1.259161   161A      1.269127  
     162A      1.270923   163A      1.283209   164A      1.293287  
     165A      1.305400   166A      1.320775   167A      1.330035  
     168A      1.345960   169A      1.352372   170A      1.356893  
     171A      1.364859   172A      1.390795   173A      1.393932  
     174A      1.413128   175A      1.416362   176A      1.453698  
     177A      1.454856   178A      1.473548   179A      1.488145  
     180A      1.511527   181A      1.512656   182A      1.534377  
     183A      1.556986   184A      1.562992   185A      1.589029  
     186A      1.590227   187A      1.596140   188A      1.613600  
     189A      1.638430   190A      1.654282   191A      1.665484  
     192A      1.669203   193A      1.673694   194A      1.685542  
     195A      1.695898   196A      1.710461   197A      1.712022  
     198A      1.724892   199A      1.725212   200A      1.726922  
     201A      1.755011   202A      1.767055   203A      1.774357  
     204A      1.775560   205A      1.795369   206A      1.802794  
     207A      1.815343   208A      1.820383   209A      1.820778  
     210A      1.841095   211A      1.866040   212A      1.871122  
     213A      1.898388   214A      1.903245   215A      1.909882  
     216A      1.925806   217A      1.961994   218A      1.962732  
     219A      1.993918   220A      1.997237   221A      2.006082  
     222A      2.010033   223A      2.031808   224A      2.039643  
     225A      2.056121   226A      2.065136   227A      2.073312  
     228A      2.096657   229A      2.108341   230A      2.119803  
     231A      2.175177   232A      2.175802   233A      2.219987  
     234A      2.224073   235A      2.254309   236A      2.254957  
     237A      2.257271   238A      2.270217   239A      2.285002  
     240A      2.291072   241A      2.328564   242A      2.335359  
     243A      2.355356   244A      2.363782   245A      2.370626  
     246A      2.390539   247A      2.437678   248A      2.449956  
     249A      2.462445   250A      2.494496   251A      2.502618  
     252A      2.510702   253A      2.582232   254A      2.599373  
     255A      2.620033   256A      2.640571   257A      2.824645  
     258A      2.869690   259A      2.973017   260A      3.017582  
     261A      3.243920   262A      3.276527   263A      3.280962  
     264A      3.350800   265A      3.355125   266A      3.425497  
     267A      3.432848   268A      3.449661   269A      3.471311  
     270A      3.507706   271A      3.520417   272A      3.554843  
     273A      3.566552   274A      3.574852   275A      3.617918  
     276A      3.640514   277A      3.643165   278A      3.648203  
     279A      3.662402   280A      3.691249   281A      3.700734  
     282A      3.708711   283A      3.712606   284A      3.733681  
     285A      3.746941   286A      3.772856   287A      3.773081  
     288A      3.785269   289A      3.829458   290A      3.832837  
     291A      3.839593   292A      3.855315   293A      3.858732  
     294A      3.899623   295A      3.915261   296A      3.927808  
     297A      3.964158   298A      3.968474   299A      3.982522  
     300A      4.008213   301A      4.014537   302A      4.019237  
     303A      4.033544   304A      4.051614   305A      4.057807  
     306A      4.072648   307A      4.100621   308A      4.101806  
     309A      4.128832   310A      4.171846   311A      4.175422  
     312A      4.201383   313A      4.229672   314A      4.243816  
     315A      4.271152   316A      4.273599   317A      4.297945  
     318A      4.298408   319A      4.313133   320A      4.314148  
     321A      4.348498   322A      4.377613   323A      4.383909  
     324A      4.416105   325A      4.427680   326A      4.443388  
     327A      4.516545   328A      4.569018   329A      4.573404  
     330A      4.603534   331A      4.612579   332A      4.671278  
     333A      4.672306   334A      4.695358   335A      4.706360  
     336A      4.736146   337A      4.759679   338A      4.767147  
     339A      4.769134   340A      4.808711   341A      4.835646  
     342A      4.863914   343A      4.873680   344A      4.881340  
     345A      4.890545   346A      4.919759   347A      4.933051  
     348A      4.971167   349A      4.982766   350A      4.995365  
     351A      5.032510   352A      5.067392   353A      5.077738  
     354A      5.099224   355A      5.134900   356A      5.145208  
     357A      5.185354   358A      5.201708   359A      5.202877  
     360A      5.212327   361A      5.246099   362A      5.258657  
     363A      5.273489   364A      5.310160   365A      5.314414  
     366A      5.376334   367A      5.391696   368A      5.409281  
     369A      5.420430   370A      5.445157   371A      5.452223  
     372A      5.486774   373A      5.510835   374A      5.512369  
     375A      5.551005   376A      5.606807   377A      5.617208  
     378A      5.645244   379A      5.656015   380A      5.696244  
     381A      5.712563   382A      5.750540   383A      5.787203  
     384A      5.836979   385A      5.879483   386A      5.901839  
     387A      5.913010   388A      5.935061   389A      5.969986  
     390A      6.022801   391A      6.100515   392A      6.147215  
     393A      6.158112   394A      6.212042   395A      6.242516  
     396A      6.276864   397A      6.297795   398A      6.298557  
     399A      6.338598   400A      6.353825   401A      6.388707  
     402A      6.474955   403A      6.535472   404A      6.616260  
     405A      6.745055   406A      6.772562   407A      6.823102  
     408A      6.836782   409A      6.885770   410A      7.003880  
     411A     18.216747   412A     18.366121   413A     18.954701  
     414A     19.215930  

    Final Occupation by Irrep:
              A 
    DOCC [    17 ]

  Energy converged.

  @DF-RHF Final Energy:  -157.34974436704653

   => Energetics <=

    Nuclear Repulsion Energy =            132.0145234885589502
    One-Electron Energy =                -472.1221117048779092
    Two-Electron Energy =                 182.7578438492724331
    DFT Exchange-Correlation Energy =       0.0000000000000000
    Empirical Dispersion Energy =           0.0000000000000000
    PCM Polarization Energy =               0.0000000000000000
    EFP Energy =                            0.0000000000000000
    Total Energy =                       -157.3497443670465259



Properties will be evaluated at   0.000000,   0.000000,   0.000000 Bohr

Properties computed using the SCF density matrix

  Nuclear Dipole Moment: (a.u.)
     X:    -0.0015      Y:    -0.0151      Z:     0.2898

  Electronic Dipole Moment: (a.u.)
     X:     0.0017      Y:     0.0156      Z:    -0.3122

  Dipole Moment: (a.u.)
     X:     0.0002      Y:     0.0005      Z:    -0.0224     Total:     0.0224

  Dipole Moment: (Debye)
     X:     0.0005      Y:     0.0012      Z:    -0.0570     Total:     0.0570


*** tstop() called on gpu-2-12.local at Wed Jun 14 14:25:50 2017
Module time:
	user time   =      97.75 seconds =       1.63 minutes
	system time =       3.01 seconds =       0.05 minutes
	total time  =        101 seconds =       1.68 minutes
Total time:
	user time   =      97.76 seconds =       1.63 minutes
	system time =       3.01 seconds =       0.05 minutes
	total time  =        101 seconds =       1.68 minutes

  //>>>>>>>>>>>>>>>>>>>>>>>>>>>>>>>>>>>//
  //               DFMP2               //
  //<<<<<<<<<<<<<<<<<<<<<<<<<<<<<<<<<<<//

   => Loading Basis Set <=

    Name: (AUG-CC-PVTZ AUX)
    Role: RIFIT
    Keyword: DF_BASIS_MP2
    atoms 1-3, 5-6, 8-9, 11-13 entry H          line    29 file /cbio/jclab/home/chayas/anaconda/envs/py35/share/psi4/basis/aug-cc-pvtz-ri.gbs 
    atoms 4, 7, 10, 14         entry C          line   147 file /cbio/jclab/home/chayas/anaconda/envs/py35/share/psi4/basis/aug-cc-pvtz-ri.gbs 

	 --------------------------------------------------------
	                          DF-MP2                         
	      2nd-Order Density-Fitted Moller-Plesset Theory     
	              RMP2 Wavefunction,   1 Threads             
	                                                         
	        Rob Parrish, Justin Turney, Andy Simmonett,      
	           Ed Hohenstein, and C. David Sherrill          
	 --------------------------------------------------------

   => Auxiliary Basis Set <=

  Basis Set: (AUG-CC-PVTZ AUX)
    Blend: AUG-CC-PVTZ-RI
    Number of shells: 252
    Number of basis function: 884
    Number of Cartesian functions: 1094
    Spherical Harmonics?: true
    Max angular momentum: 4

	 --------------------------------------------------------
	                 NBF =   414, NAUX =   884
	 --------------------------------------------------------
	   CLASS    FOCC     OCC    AOCC    AVIR     VIR    FVIR
	   PAIRS       0      17      17     397     397       0
	 --------------------------------------------------------


         ------------------------------------------------------------
                                     CPHF                           
                                  Rob Parrish                       
         ------------------------------------------------------------

  ==> Geometry <==

    Molecular point group: c1
    Full point group: C1

    Geometry (in Angstrom), charge = 0, multiplicity = 1:

       Center              X                  Y                   Z               Mass       
    ------------   -----------------  -----------------  -----------------  -----------------
           H         -1.901465294236     0.179088381202     1.146510022084     1.007825032070
           H         -2.178465294236     1.654088381202     0.251510022084     1.007825032070
           H         -2.303465294236     0.108088381202    -0.551489977916     1.007825032070
           C         -1.781465294236     0.661088381202     0.199510022084    12.000000000000
           H         -0.163465294236     1.207088381202    -1.104489977916     1.007825032070
           H          0.239534705764     1.279088381202     0.594510022084     1.007825032070
           C         -0.283465294236     0.725088381202    -0.156489977916    12.000000000000
           H         -0.249465294236    -1.337911618798     0.440510022084     1.007825032070
           H          0.189534705764    -1.074911618798    -1.229489977916     1.007825032070
           C          0.288534705764    -0.702911618798    -0.231489977916    12.000000000000
           H          2.173534705764    -1.673911618798     0.110510022084     1.007825032070
           H          1.876534705764    -0.309911618798     1.160510022084     1.007825032070
           H          2.315534705764    -0.046911618798    -0.509489977916     1.007825032070
           C          1.776534705764    -0.681911618798     0.162510022084    12.000000000000

  Nuclear repulsion =  132.014523488558950
  Reference energy  = -157.349744367046526

  ==> Basis Set <==

  Basis Set: AUG-CC-PVTZ
    Blend: AUG-CC-PVTZ
    Number of shells: 146
    Number of basis function: 414
    Number of Cartesian functions: 470
    Spherical Harmonics?: true
    Max angular momentum: 3

  ==> CGRSolver (by Rob Parrish) <==

   Number of roots    =         1
   Preconditioning    =    JACOBI
   Convergence cutoff =     1E-06
   Maximum iterations =       100

  ==> CPHFRHamiltonian (by Rob Parrish) <== 

  ==> DFJK: Density-Fitted J/K Matrices <==

    J tasked:                  Yes
    K tasked:                  Yes
    wK tasked:                  No
    OpenMP threads:              1
    Integrals threads:           1
    Memory (MB):               715
    Algorithm:                Core
    Integral Cache:           NONE
    Schwarz Cutoff:          1E-12
    Fitting Condition:       1E-12

   => Auxiliary Basis Set <=

  Basis Set: (AUG-CC-PVTZ AUX)
    Blend: AUG-CC-PVTZ-JKFIT
    Number of shells: 260
    Number of basis function: 876
    Number of Cartesian functions: 1074
    Spherical Harmonics?: true
    Max angular momentum: 4

  ==> CPHF Iterations <==

  => Iterations <=

             Iter  Converged  Remaining    Residual
  CGR           1          0          1   8.194E-02
  CGR           2          0          1   1.317E-02
  CGR           3          0          1   3.409E-03
  CGR           4          0          1   8.231E-04
  CGR           5          0          1   1.333E-04
  CGR           6          0          1   2.905E-05
  CGR           7          0          1   6.230E-06
  CGR           8          0          1   1.300E-06
  CGR           9          1          0   2.058E-07

    CGRSolver converged.

  ==> DFCorrGrad: Density-Fitted Correlated Gradients <==

    OpenMP threads:              1
    Integrals threads:           1
    Memory (MB):               715
    Schwarz Cutoff:          0E+00
    Fitting Condition:       1E-12

   => Auxiliary Basis Set <=

  Basis Set: (AUG-CC-PVTZ AUX)
    Blend: AUG-CC-PVTZ-JKFIT
    Number of shells: 260
    Number of basis function: 876
    Number of Cartesian functions: 1074
    Spherical Harmonics?: true
    Max angular momentum: 4

	-----------------------------------------------------------
	 ==================> DF-MP2 Energies <==================== 
	-----------------------------------------------------------
	 Reference Energy          =    -157.3497443670465259 [Eh]
	 Singles Energy            =      -0.0000000000000000 [Eh]
	 Same-Spin Energy          =      -0.1654511569701084 [Eh]
	 Opposite-Spin Energy      =      -0.6392753174064377 [Eh]
	 Correlation Energy        =      -0.8047264743765461 [Eh]
	 Total Energy              =    -158.1544708414230627 [Eh]
	-----------------------------------------------------------
	 ================> DF-SCS-MP2 Energies <================== 
	-----------------------------------------------------------
	 SCS Same-Spin Scale       =       0.3333333333333333 [-]
	 SCS Opposite-Spin Scale   =       1.2000000000000000 [-]
	 SCS Same-Spin Energy      =      -0.0551503856567028 [Eh]
	 SCS Opposite-Spin Energy  =      -0.7671303808877252 [Eh]
	 SCS Correlation Energy    =      -0.8222807665444281 [Eh]
	 SCS Total Energy          =    -158.1720251335909495 [Eh]
	-----------------------------------------------------------


  -Total Gradient:
     Atom            X                  Y                   Z
    ------   -----------------  -----------------  -----------------
       1        0.003132045429     0.005221540882    -0.010518560573
       2        0.008411240653    -0.009346306666    -0.001295884607
       3        0.008085992068     0.006667585317     0.007750903098
       4       -0.025370046451    -0.009150896903     0.007330819350
       5       -0.003693459660    -0.008076182879     0.009282700337
       6       -0.006455048635    -0.007845977718    -0.007739551277
       7        0.022929032074     0.028809178925    -0.004328539377
       8        0.006771395998     0.008672568489    -0.006712074079
       9        0.003490462672     0.007035175805     0.010630225486
      10       -0.022177601866    -0.028166665934    -0.008495505538
      11       -0.008665592306     0.010062300180    -0.000358860780
      12       -0.002738824106    -0.003865204256    -0.010890580213
      13       -0.007766494768    -0.006855532412     0.006206086382
      14        0.024046898899     0.006838417170     0.009138821794


*** tstop() called on gpu-2-12.local at Wed Jun 14 14:32:18 2017
Module time:
	user time   =     474.05 seconds =       7.90 minutes
	system time =      14.91 seconds =       0.25 minutes
	total time  =        489 seconds =       8.15 minutes
Total time:
	user time   =     474.06 seconds =       7.90 minutes
	system time =      14.91 seconds =       0.25 minutes
	total time  =        489 seconds =       8.15 minutes

			-----------------------------------------
			 OPTKING 2.0: for geometry optimizations 
			  - R.A. King,  Bethel University        
			-----------------------------------------

	Internal coordinates to be generated automatically.
	Detected frag 1 with atoms:  1 2 3 4 5 6 7 8 9 10 11 12 13 14
	---Fragment 1 Bond Connectivity---
	 1 : 4
	 2 : 4
	 3 : 4
	 4 : 1 2 3 7
	 5 : 7
	 6 : 7
	 7 : 4 5 6 10
	 8 : 10
	 9 : 10
	 10 : 7 8 9 14
	 11 : 14
	 12 : 14
	 13 : 14
	 14 : 10 11 12 13

	Assuming in current code that numbering for constraints corresponds to unified fragment.
	Fixed dihedral atom list: 
	    14    10     7     4
	---Fragment 1 Geometry and Gradient---
	 H          -3.5932486573        0.3384279941        2.1665899503
	 H          -4.1167027961        3.1257740401        0.4752850614
	 H          -4.3529185627        0.2042574386       -1.0421650233
	 C          -3.3664815213        1.2492759901        0.3770193025
	 H          -0.3089046383        2.2810664587       -2.0871835748
	 H           0.4526549932        2.4171267402        1.1234611250
	 C          -0.5356717743        1.3702184626       -0.2957232008
	 H          -0.4714210858       -2.5282865495        0.8324433005
	 H           0.3581686866       -2.0312885766       -2.3233993414
	 C           0.5452515737       -1.3283104552       -0.4374526608
	 H           4.1073853342       -3.1632345302        0.2088336767
	 H           3.5461366727       -0.5856480849        2.1930461162
	 H           4.3757264451       -0.0886501120       -0.9627965257
	 C           3.3571640595       -1.2886262064        0.3070994356
	             0.0031320454        0.0052215409       -0.0105185606
	             0.0084112407       -0.0093463067       -0.0012958846
	             0.0080859921        0.0066675853        0.0077509031
	            -0.0253700465       -0.0091508969        0.0073308194
	            -0.0036934597       -0.0080761829        0.0092827003
	            -0.0064550486       -0.0078459777       -0.0077395513
	             0.0229290321        0.0288091789       -0.0043285394
	             0.0067713960        0.0086725685       -0.0067120741
	             0.0034904627        0.0070351758        0.0106302255
	            -0.0221776019       -0.0281666659       -0.0084955055
	            -0.0086655923        0.0100623002       -0.0003588608
	            -0.0027388241       -0.0038652043       -0.0108905802
	            -0.0077664948       -0.0068555324        0.0062060864
	             0.0240468989        0.0068384172        0.0091388218

	Previous optimization step data not found.  Starting new optimization.

	---Fragment 1 Intrafragment Coordinates---
	 - Coordinate -           - BOHR/RAD -       - ANG/DEG -
	 R(1,4)           =         2.020799	       1.069361
	 R(2,4)           =         2.023298	       1.070683
	 R(3,4)           =         2.019704	       1.068782
	 R(4,7)           =         2.912163	       1.541050
	 R(5,7)           =         2.022473	       1.070247
	 R(6,7)           =         2.021606	       1.069788
	 R(7,10)          =         2.910419	       1.540128
	 R(8,10)          =         2.021436	       1.069698
	 R(9,10)          =         2.021379	       1.069668
	 R(10,14)         =         2.909087	       1.539422
	 R(11,14)         =         2.021545	       1.069756
	 R(12,14)         =         2.021555	       1.069761
	 R(13,14)         =         2.022387	       1.070201
	 B(1,4,2)         =         1.910720	     109.476164
	 B(1,4,3)         =         1.911598	     109.526523
	 B(1,4,7)         =         1.909621	     109.413222
	 B(2,4,3)         =         1.910174	     109.444932
	 B(2,4,7)         =         1.910424	     109.459210
	 B(3,4,7)         =         1.911262	     109.507259
	 B(4,7,5)         =         1.909558	     109.409625
	 B(4,7,6)         =         1.911934	     109.545763
	 B(4,7,10)        =         1.911092	     109.497493
	 B(5,7,6)         =         1.911110	     109.498525
	 B(5,7,10)        =         1.910065	     109.438675
	 B(6,7,10)        =         1.910040	     109.437207
	 B(7,10,8)        =         1.910303	     109.452301
	 B(7,10,9)        =         1.910824	     109.482155
	 B(7,10,14)       =         1.911213	     109.504437
	 B(8,10,9)        =         1.910417	     109.458846
	 B(8,10,14)       =         1.910766	     109.478806
	 B(9,10,14)       =         1.910276	     109.450772
	 B(10,14,11)      =         1.910943	     109.488965
	 B(10,14,12)      =         1.911204	     109.503926
	 B(10,14,13)      =         1.911557	     109.524173
	 B(11,14,12)      =         1.910410	     109.458432
	 B(11,14,13)      =         1.910054	     109.438058
	 B(12,14,13)      =         1.909629	     109.413709
	 D(1,4,7,5)       =         3.141137	     179.973912
	 D(1,4,7,6)       =        -1.046932	     -59.984762
	 D(1,4,7,10)      =         1.047815	      60.035388
	 D(2,4,7,5)       =        -1.048295	     -60.062857
	 D(2,4,7,6)       =         1.046822	      59.978470
	 D(2,4,7,10)      =         3.141569	     179.998619
	 D(3,4,7,5)       =         1.045795	      59.919654
	 D(3,4,7,6)       =         3.140912	     179.960980
	 D(3,4,7,10)      =        -1.047527	     -60.018870
	 D(4,7,10,8)      =        -0.523464	     -29.992290
	 D(4,7,10,9)      =         1.570581	      89.987665
	 D(4,7,10,14)     =        -2.618174	    -150.010332
	 D(5,7,10,8)      =        -2.616476	    -149.913020
	 D(5,7,10,9)      =        -0.522431	     -29.933065
	 D(5,7,10,14)     =         1.572000	      90.068938
	 D(6,7,10,8)      =         1.572442	      90.094268
	 D(6,7,10,9)      =        -2.616698	    -149.925777
	 D(6,7,10,14)     =        -0.522268	     -29.923773
	 D(7,10,14,11)    =         3.141408	     179.989448
	 D(7,10,14,12)    =         1.046747	      59.974196
	 D(7,10,14,13)    =        -1.047335	     -60.007849
	 D(8,10,14,11)    =         1.046982	      59.987626
	 D(8,10,14,12)    =        -1.047680	     -60.027626
	 D(8,10,14,13)    =         3.141424	     179.990329
	 D(9,10,14,11)    =        -1.047012	     -59.989345
	 D(9,10,14,12)    =         3.141512	     179.995403
	 D(9,10,14,13)    =         1.047431	      60.013359

	Current energy   :      -158.1544708414

	Generating empirical Hessian (Schlegel '84) for each fragment.
	Adding user-defined constraint: Fragment 1; Coordinate 49:
		Value =    -2.618174; Fixed value    =    -2.617994
		Force =     0.000090; Force constant =     0.500000
	Removing off-diagonal coupling between coordinate 49 and others.
	Taking RFO optimization step.
	Going to follow RFO solution 1.
	Using RFO vector 1.

	Determining step-restricting scale parameter for RS-RFO.
	Maximum step size allowed    0.10000

	 Iter      |step|        alpha        rfo_root  
	------------------------------------------------
	    0     0.21098       1.00000           1
	    1     0.16470       4.33576           1
	    2     0.12953      13.26671           1
	    3     0.10912      25.85793           1
	    4     0.10124      33.72863           1
	    5     0.10003      35.15949           1
	    6     0.10000      35.19325           1
	------------------------------------------------
	Norm of target step-size    0.10000
	Projected energy change by RFO approximation:        -0.0043486368

	Back-transformation to cartesian coordinates...
	Successfully converged to displaced geometry.

	--- Internal Coordinate Step in ANG or DEG, aJ/ANG or AJ/DEG ---
	 ---------------------------------------------------------------------------
	   Coordinate                Previous        Force       Change         New 
	   ----------                --------       ------       ------       ------
	    1 R(1,4)          =      1.069361     0.099029     0.012139     1.081500
	    2 R(2,4)          =      1.070683     0.097628     0.012006     1.082689
	    3 R(3,4)          =      1.068782     0.105830     0.012955     1.081736
	    4 R(4,7)          =      1.541050    -0.054455    -0.008038     1.533012
	    5 R(5,7)          =      1.070247     0.101120     0.012422     1.082669
	    6 R(6,7)          =      1.069788     0.104237     0.012791     1.082579
	    7 R(7,10)         =      1.540128    -0.026617    -0.003922     1.536206
	    8 R(8,10)         =      1.069698     0.105213     0.012908     1.082606
	    9 R(9,10)         =      1.069668     0.104530     0.012823     1.082491
	   10 R(10,14)        =      1.539422    -0.048160    -0.007086     1.532337
	   11 R(11,14)        =      1.069756     0.103226     0.012666     1.082422
	   12 R(12,14)        =      1.069761     0.096889     0.011888     1.081649
	   13 R(13,14)        =      1.070201     0.097844     0.012019     1.082219
	   14 B(1,4,2)        =    109.476164    -0.000233    -0.550422   108.925741
	   15 B(1,4,3)        =    109.526523    -0.000159    -0.435507   109.091017
	   16 B(1,4,7)        =    109.413222     0.000081     0.184934   109.598156
	   17 B(2,4,3)        =    109.444932    -0.000253    -0.591740   108.853191
	   18 B(2,4,7)        =    109.459210     0.000433     1.077231   110.536441
	   19 B(3,4,7)        =    109.507259     0.000130     0.301054   109.808314
	   20 B(4,7,5)        =    109.409625    -0.000177    -0.268966   109.140658
	   21 B(4,7,6)        =    109.545763    -0.000156    -0.309413   109.236350
	   22 B(4,7,10)       =    109.497493     0.000671     1.461253   110.958746
	   23 B(5,7,6)        =    109.498525    -0.000007    -0.316345   109.182179
	   24 B(5,7,10)       =    109.438675    -0.000158    -0.266239   109.172436
	   25 B(6,7,10)       =    109.437207    -0.000173    -0.311503   109.125705
	   26 B(7,10,8)       =    109.452301    -0.000179    -0.327156   109.125144
	   27 B(7,10,9)       =    109.482155    -0.000162    -0.279889   109.202266
	   28 B(7,10,14)      =    109.504437     0.000675     1.469891   110.974328
	   29 B(8,10,9)       =    109.458846    -0.000004    -0.309212   109.149634
	   30 B(8,10,14)      =    109.478806    -0.000150    -0.285819   109.192987
	   31 B(9,10,14)      =    109.450772    -0.000181    -0.279951   109.170821
	   32 B(10,14,11)     =    109.488965     0.000435     1.080377   110.569342
	   33 B(10,14,12)     =    109.503926     0.000066     0.147798   109.651724
	   34 B(10,14,13)     =    109.524173     0.000131     0.305174   109.829347
	   35 B(11,14,12)     =    109.458432    -0.000228    -0.540994   108.917438
	   36 B(11,14,13)     =    109.438058    -0.000255    -0.598002   108.840057
	   37 B(12,14,13)     =    109.413709    -0.000149    -0.411310   109.002400
	   38 D(1,4,7,5)      =    179.973912     0.000020     0.319367   180.293279
	   39 D(1,4,7,6)      =    -59.984762    -0.000029    -0.415617   -60.400378
	   40 D(1,4,7,10)     =     60.035388    -0.000005    -0.086954    59.948434
	   41 D(2,4,7,5)      =    -60.062857     0.000026     0.424379   -59.638478
	   42 D(2,4,7,6)      =     59.978470    -0.000022    -0.310605    59.667865
	   43 D(2,4,7,10)     =    179.998619     0.000002     0.018058   180.016677
	   44 D(3,4,7,5)      =     59.919654     0.000035     0.554725    60.474378
	   45 D(3,4,7,6)      =    179.960980    -0.000014    -0.180259   179.780721
	   46 D(3,4,7,10)     =    -60.018870     0.000010     0.148404   -59.870466
	   47 D(4,7,10,8)     =    -29.992290     0.000013     0.201661   -29.790629
	   48 D(4,7,10,9)     =     89.987665    -0.000036    -0.540887    89.446778
	   49 D(4,7,10,14)    =   -150.010332    -0.000015    -0.150360  -150.160691
	   50 D(5,7,10,8)     =   -149.913020    -0.000009    -0.203589  -150.116609
	   51 D(5,7,10,9)     =    -29.933065    -0.000058    -0.946137   -30.879202
	   52 D(5,7,10,14)    =     90.068938    -0.000037    -0.555610    89.513328
	   53 D(6,7,10,8)     =     90.094268     0.000039     0.529568    90.623836
	   54 D(6,7,10,9)     =   -149.925777    -0.000010    -0.212981  -150.138757
	   55 D(6,7,10,14)    =    -29.923773     0.000011     0.177547   -29.746227
	   56 D(7,10,14,11)   =    179.989448     0.000002     0.021745   180.011193
	   57 D(7,10,14,12)   =     59.974196    -0.000004    -0.075942    59.898254
	   58 D(7,10,14,13)   =    -60.007849     0.000010     0.149965   -59.857884
	   59 D(8,10,14,11)   =     59.987626    -0.000022    -0.306239    59.681387
	   60 D(8,10,14,12)   =    -60.027626    -0.000028    -0.403926   -60.431552
	   61 D(8,10,14,13)   =    179.990329    -0.000014    -0.178020   179.812310
	   62 D(9,10,14,11)   =    -59.989345     0.000026     0.411717   -59.577627
	   63 D(9,10,14,12)   =    179.995403     0.000019     0.314030   180.309434
	   64 D(9,10,14,13)   =     60.013359     0.000034     0.539937    60.553296
	 ---------------------------------------------------------------------------
	Successfully symmetrized geometry.
	 Forces used to impose fixed constraints are not included.
	  Forces zeroed: 49 

  ==> Convergence Check <==

  Measures of convergence in internal coordinates in au.
  Criteria marked as inactive (o), active & met (*), and active & unmet ( ).
  --------------------------------------------------------------------------------------------- ~
   Step     Total Energy     Delta E     MAX Force     RMS Force      MAX Disp      RMS Disp    ~
  --------------------------------------------------------------------------------------------- ~
    Convergence Criteria    1.00e-06 *    3.00e-04 *             o    1.20e-03 *             o  ~
  --------------------------------------------------------------------------------------------- ~
      1    -158.15447084   -1.58e+02      1.28e-02      5.56e-03 o    2.57e-02      1.25e-02 o  ~
  ---------------------------------------------------------------------------------------------

	Writing optimization data to binary file.
	Structure for next step:
	Cartesian Geometry (in Angstrom)
	    H    -1.9201371037   0.1758361303   1.1545693246
	    H    -2.2082056758   1.6561043439   0.2450393952
	    H    -2.3219301268   0.0941906196  -0.5591897462
	    C    -1.7905784003   0.6584363868   0.1954266052
	    H    -0.1774538478   1.2053422415  -1.1120299884
	    H     0.2229004386   1.2861076362   0.6048177925
	    C    -0.2989692069   0.7165726814  -0.1536404906
	    H    -0.2339695064  -1.3455143358   0.4507684383
	    H     0.2035190795  -1.0724554243  -1.2364549393
	    C     0.3036118248  -0.6946123620  -0.2269982713
	    H     2.2041278913  -1.6757513249   0.1055497470
	    H     1.8948509302  -0.3072874162   1.1696997408
	    H     2.3344352468  -0.0330352283  -0.5140509509
	    C     1.7862843373  -0.6786966115   0.1596336524
			--------------------------
			 OPTKING Finished Execution 
			--------------------------

    Structure for next step:
    Molecular point group: c1
    Full point group: C1

    Geometry (in Angstrom), charge = 0, multiplicity = 1:

    H           -1.920176798609     0.175770536808     1.154497137595
    H           -2.208245370638     1.656038750395     0.244967208236
    H           -2.321969821663     0.094125026059    -0.559261933222
    C           -1.790618095157     0.658370793303     0.195354418141
    H           -0.177493542700     1.205276647983    -1.112102175385
    H            0.222860743740     1.286042042703     0.604745605455
    C           -0.299008901759     0.716507087899    -0.153712677618
    H           -0.234009201282    -1.345579929364     0.450696251278
    H            0.203479384632    -1.072521017850    -1.236527126346
    C            0.303572129907    -0.694677955574    -0.227070458348
    H            2.204088196414    -1.675816918473     0.105477560000
    H            1.894811235277    -0.307353009693     1.169627553765
    H            2.334395551893    -0.033100821875    -0.514123137913
    C            1.786244642389    -0.678762204993     0.159561465373

gradient() will perform analytic gradient computation.

*** tstart() called on gpu-2-12.local
*** at Wed Jun 14 14:32:18 2017

    SCF Algorithm Type (re)set to DF.

*** tstart() called on gpu-2-12.local
*** at Wed Jun 14 14:32:18 2017

   => Loading Basis Set <=

    Name: AUG-CC-PVTZ
    Role: ORBITAL
    Keyword: BASIS
    atoms 1-3, 5-6, 8-9, 11-13 entry H          line    34 file /cbio/jclab/home/chayas/anaconda/envs/py35/share/psi4/basis/aug-cc-pvtz.gbs 
    atoms 4, 7, 10, 14         entry C          line   221 file /cbio/jclab/home/chayas/anaconda/envs/py35/share/psi4/basis/aug-cc-pvtz.gbs 


         ---------------------------------------------------------
                                   SCF
            by Justin Turney, Rob Parrish, and Andy Simmonett
                              RHF Reference
                        1 Threads,    953 MiB Core
         ---------------------------------------------------------

  ==> Geometry <==

    Molecular point group: c1
    Full point group: C1

    Geometry (in Angstrom), charge = 0, multiplicity = 1:

       Center              X                  Y                   Z               Mass       
    ------------   -----------------  -----------------  -----------------  -----------------
           H         -1.920176798609     0.175770536808     1.154497137595     1.007825032070
           H         -2.208245370638     1.656038750395     0.244967208236     1.007825032070
           H         -2.321969821663     0.094125026059    -0.559261933222     1.007825032070
           C         -1.790618095157     0.658370793303     0.195354418141    12.000000000000
           H         -0.177493542700     1.205276647983    -1.112102175385     1.007825032070
           H          0.222860743740     1.286042042703     0.604745605455     1.007825032070
           C         -0.299008901759     0.716507087899    -0.153712677618    12.000000000000
           H         -0.234009201282    -1.345579929364     0.450696251278     1.007825032070
           H          0.203479384632    -1.072521017850    -1.236527126346     1.007825032070
           C          0.303572129907    -0.694677955574    -0.227070458348    12.000000000000
           H          2.204088196414    -1.675816918473     0.105477560000     1.007825032070
           H          1.894811235277    -0.307353009693     1.169627553765     1.007825032070
           H          2.334395551893    -0.033100821875    -0.514123137913     1.007825032070
           C          1.786244642389    -0.678762204993     0.159561465373    12.000000000000

  Running in c1 symmetry.

  Rotational constants: A =      0.71708  B =      0.12490  C =      0.11892 [cm^-1]
  Rotational constants: A =  21497.55270  B =   3744.34877  C =   3564.98534 [MHz]
  Nuclear repulsion =  131.504852535321845

  Charge       = 0
  Multiplicity = 1
  Electrons    = 34
  Nalpha       = 17
  Nbeta        = 17

  ==> Algorithm <==

  SCF Algorithm Type is DF.
  DIIS enabled.
  MOM disabled.
  Fractional occupation disabled.
  Guess Type is READ.
  Energy threshold   = 1.00e-10
  Density threshold  = 1.00e-10
  Integral threshold = 0.00e+00

  ==> Primary Basis <==

  Basis Set: AUG-CC-PVTZ
    Blend: AUG-CC-PVTZ
    Number of shells: 146
    Number of basis function: 414
    Number of Cartesian functions: 470
    Spherical Harmonics?: true
    Max angular momentum: 3

   => Loading Basis Set <=

    Name: (AUG-CC-PVTZ AUX)
    Role: JKFIT
    Keyword: DF_BASIS_SCF
    atoms 1-3, 5-6, 8-9, 11-13 entry H          line    69 file /cbio/jclab/home/chayas/anaconda/envs/py35/share/psi4/basis/aug-cc-pvtz-jkfit.gbs 
    atoms 4, 7, 10, 14         entry C          line   161 file /cbio/jclab/home/chayas/anaconda/envs/py35/share/psi4/basis/aug-cc-pvtz-jkfit.gbs 

  Reading orbitals from file 180, no projection.

  ==> Pre-Iterations <==

   -------------------------------------------------------
    Irrep   Nso     Nmo     Nalpha   Nbeta   Ndocc  Nsocc
   -------------------------------------------------------
     A        414     414       0       0       0       0
   -------------------------------------------------------
    Total     414     414      17      17      17       0
   -------------------------------------------------------

  ==> Integral Setup <==

  ==> DFJK: Density-Fitted J/K Matrices <==

    J tasked:                  Yes
    K tasked:                  Yes
    wK tasked:                  No
    OpenMP threads:              1
    Integrals threads:           1
    Memory (MB):               715
    Algorithm:                Core
    Integral Cache:           NONE
    Schwarz Cutoff:          1E-12
    Fitting Condition:       1E-12

   => Auxiliary Basis Set <=

  Basis Set: (AUG-CC-PVTZ AUX)
    Blend: AUG-CC-PVTZ-JKFIT
    Number of shells: 260
    Number of basis function: 876
    Number of Cartesian functions: 1074
    Spherical Harmonics?: true
    Max angular momentum: 4

  Minimum eigenvalue in the overlap matrix is 8.6225912241E-06.
  Using Symmetric Orthogonalization.

  SCF Guess: Orbitals guess was supplied from a previous computation.

  ==> Iterations <==

                           Total Energy        Delta E     RMS |[F,P]|

   @DF-RHF iter   0:  -157.27201227943854   -1.57272e+02   1.29001e-04 
   @DF-RHF iter   1:  -157.35208094964128   -8.00687e-02   5.43217e-05 
   @DF-RHF iter   2:  -157.35238021133836   -2.99262e-04   2.81453e-05 DIIS
   @DF-RHF iter   3:  -157.35244460700841   -6.43957e-05   3.13551e-06 DIIS
   @DF-RHF iter   4:  -157.35244641553780   -1.80853e-06   8.29607e-07 DIIS
   @DF-RHF iter   5:  -157.35244652234144   -1.06804e-07   2.82822e-07 DIIS
   @DF-RHF iter   6:  -157.35244653466927   -1.23278e-08   4.84147e-08 DIIS
   @DF-RHF iter   7:  -157.35244653520283   -5.33561e-10   8.49419e-09 DIIS
   @DF-RHF iter   8:  -157.35244653521661   -1.37845e-11   2.07249e-09 DIIS
   @DF-RHF iter   9:  -157.35244653521855   -1.93268e-12   4.64548e-10 DIIS
   @DF-RHF iter  10:  -157.35244653521886   -3.12639e-13   8.70506e-11 DIIS

  ==> Post-Iterations <==

    Orbital Energies (a.u.)
    -----------------------

    Doubly Occupied:                                                      

       1A    -11.209955     2A    -11.209360     3A    -11.204197  
       4A    -11.204180     5A     -1.070386     6A     -0.980152  
       7A     -0.860090     8A     -0.789152     9A     -0.642506  
      10A     -0.586087    11A     -0.583854    12A     -0.561772  
      13A     -0.511496    14A     -0.503400    15A     -0.466469  
      16A     -0.465327    17A     -0.448567  

    Virtual:                                                              

      18A      0.032253    19A      0.037290    20A      0.039436  
      21A      0.040164    22A      0.056864    23A      0.060092  
      24A      0.060202    25A      0.061515    26A      0.070937  
      27A      0.082867    28A      0.113448    29A      0.116384  
      30A      0.124125    31A      0.127476    32A      0.134481  
      33A      0.136113    34A      0.142025    35A      0.142085  
      36A      0.147170    37A      0.154427    38A      0.158777  
      39A      0.168033    40A      0.171104    41A      0.201300  
      42A      0.208495    43A      0.213888    44A      0.233231  
      45A      0.237219    46A      0.243245    47A      0.263500  
      48A      0.273108    49A      0.280774    50A      0.292178  
      51A      0.294630    52A      0.307703    53A      0.309469  
      54A      0.329949    55A      0.330648    56A      0.339242  
      57A      0.344493    58A      0.353265    59A      0.360555  
      60A      0.361197    61A      0.365312    62A      0.373827  
      63A      0.379184    64A      0.382305    65A      0.385610  
      66A      0.392048    67A      0.393251    68A      0.399087  
      69A      0.413457    70A      0.417698    71A      0.427856  
      72A      0.429738    73A      0.442836    74A      0.443856  
      75A      0.445354    76A      0.453204    77A      0.459664  
      78A      0.473832    79A      0.474124    80A      0.480967  
      81A      0.486671    82A      0.491591    83A      0.498477  
      84A      0.505540    85A      0.512696    86A      0.524478  
      87A      0.527593    88A      0.529153    89A      0.534176  
      90A      0.547924    91A      0.551827    92A      0.567187  
      93A      0.569624    94A      0.570426    95A      0.576899  
      96A      0.585918    97A      0.593207    98A      0.614381  
      99A      0.616402   100A      0.621591   101A      0.645761  
     102A      0.660021   103A      0.668804   104A      0.680957  
     105A      0.684221   106A      0.702255   107A      0.761721  
     108A      0.782895   109A      0.805345   110A      0.811900  
     111A      0.829286   112A      0.831402   113A      0.839617  
     114A      0.844361   115A      0.857404   116A      0.859595  
     117A      0.860805   118A      0.862411   119A      0.884736  
     120A      0.885541   121A      0.893822   122A      0.898891  
     123A      0.903312   124A      0.904557   125A      0.920948  
     126A      0.926249   127A      0.938661   128A      0.947707  
     129A      0.953409   130A      0.954090   131A      0.962588  
     132A      0.981457   133A      0.984748   134A      0.990820  
     135A      0.993853   136A      1.004522   137A      1.013370  
     138A      1.027886   139A      1.043331   140A      1.048556  
     141A      1.051156   142A      1.088477   143A      1.100065  
     144A      1.100444   145A      1.110550   146A      1.116931  
     147A      1.123793   148A      1.133627   149A      1.140457  
     150A      1.153143   151A      1.158643   152A      1.168856  
     153A      1.170970   154A      1.192822   155A      1.193429  
     156A      1.208029   157A      1.218898   158A      1.233116  
     159A      1.240322   160A      1.254232   161A      1.266662  
     162A      1.267499   163A      1.279532   164A      1.288677  
     165A      1.299353   166A      1.316773   167A      1.324768  
     168A      1.339554   169A      1.344760   170A      1.350575  
     171A      1.360982   172A      1.387063   173A      1.389615  
     174A      1.406724   175A      1.411395   176A      1.449872  
     177A      1.451813   178A      1.469136   179A      1.485207  
     180A      1.507960   181A      1.510298   182A      1.534288  
     183A      1.557568   184A      1.564275   185A      1.587634  
     186A      1.588465   187A      1.593282   188A      1.603265  
     189A      1.633025   190A      1.650555   191A      1.660862  
     192A      1.663777   193A      1.672024   194A      1.680963  
     195A      1.693388   196A      1.706729   197A      1.709724  
     198A      1.718681   199A      1.723072   200A      1.724606  
     201A      1.751575   202A      1.765667   203A      1.771484  
     204A      1.773407   205A      1.790702   206A      1.802577  
     207A      1.808419   208A      1.816163   209A      1.816953  
     210A      1.838800   211A      1.859230   212A      1.864414  
     213A      1.892925   214A      1.901241   215A      1.906580  
     216A      1.921948   217A      1.954315   218A      1.954412  
     219A      1.986290   220A      1.988964   221A      1.998560  
     222A      2.001543   223A      2.025750   224A      2.033508  
     225A      2.049237   226A      2.057706   227A      2.068111  
     228A      2.092615   229A      2.100471   230A      2.116226  
     231A      2.170817   232A      2.173862   233A      2.211986  
     234A      2.215936   235A      2.243599   236A      2.248594  
     237A      2.250507   238A      2.266864   239A      2.281531  
     240A      2.282484   241A      2.318627   242A      2.326884  
     243A      2.341785   244A      2.356366   245A      2.359421  
     246A      2.388868   247A      2.431080   248A      2.452600  
     249A      2.459503   250A      2.492602   251A      2.502738  
     252A      2.503132   253A      2.582460   254A      2.597238  
     255A      2.615938   256A      2.631905   257A      2.829881  
     258A      2.874261   259A      2.986347   260A      3.031895  
     261A      3.237575   262A      3.283635   263A      3.286889  
     264A      3.355559   265A      3.358772   266A      3.428304  
     267A      3.435306   268A      3.446835   269A      3.474916  
     270A      3.499606   271A      3.518384   272A      3.548943  
     273A      3.572311   274A      3.574527   275A      3.619264  
     276A      3.637859   277A      3.640025   278A      3.641957  
     279A      3.658187   280A      3.685822   281A      3.703720  
     282A      3.705963   283A      3.713317   284A      3.733425  
     285A      3.746436   286A      3.771943   287A      3.773808  
     288A      3.787733   289A      3.826503   290A      3.828518  
     291A      3.835368   292A      3.851802   293A      3.861082  
     294A      3.895241   295A      3.910339   296A      3.920992  
     297A      3.962510   298A      3.964218   299A      3.970609  
     300A      3.997180   301A      4.000183   302A      4.016062  
     303A      4.017619   304A      4.042835   305A      4.043894  
     306A      4.061994   307A      4.089994   308A      4.093077  
     309A      4.126168   310A      4.162962   311A      4.167376  
     312A      4.195299   313A      4.217209   314A      4.234702  
     315A      4.259975   316A      4.260690   317A      4.279286  
     318A      4.294450   319A      4.295235   320A      4.306081  
     321A      4.333200   322A      4.361963   323A      4.371237  
     324A      4.398395   325A      4.419161   326A      4.432070  
     327A      4.501099   328A      4.550209   329A      4.554763  
     330A      4.590067   331A      4.599093   332A      4.650838  
     333A      4.655127   334A      4.676623   335A      4.682573  
     336A      4.717649   337A      4.735191   338A      4.753381  
     339A      4.754868   340A      4.793258   341A      4.818154  
     342A      4.847093   343A      4.860181   344A      4.869401  
     345A      4.872787   346A      4.901615   347A      4.914941  
     348A      4.953902   349A      4.971461   350A      4.973679  
     351A      5.015228   352A      5.045877   353A      5.048846  
     354A      5.079039   355A      5.118460   356A      5.127063  
     357A      5.161044   358A      5.180890   359A      5.183886  
     360A      5.190205   361A      5.228885   362A      5.230958  
     363A      5.254152   364A      5.287830   365A      5.290834  
     366A      5.347483   367A      5.363275   368A      5.388472  
     369A      5.402926   370A      5.423213   371A      5.432836  
     372A      5.458484   373A      5.490573   374A      5.491524  
     375A      5.519168   376A      5.574680   377A      5.581002  
     378A      5.615167   379A      5.640798   380A      5.681732  
     381A      5.684939   382A      5.730782   383A      5.750451  
     384A      5.795386   385A      5.836374   386A      5.871542  
     387A      5.878793   388A      5.903533   389A      5.931715  
     390A      5.990340   391A      6.067752   392A      6.101057  
     393A      6.109411   394A      6.180162   395A      6.206753  
     396A      6.232079   397A      6.259696   398A      6.264689  
     399A      6.300069   400A      6.301408   401A      6.332637  
     402A      6.461871   403A      6.528754   404A      6.601018  
     405A      6.732049   406A      6.765149   407A      6.821231  
     408A      6.831667   409A      6.881799   410A      7.002106  
     411A     18.025541   412A     18.148395   413A     18.863525  
     414A     19.084655  

    Final Occupation by Irrep:
              A 
    DOCC [    17 ]

  Energy converged.

  @DF-RHF Final Energy:  -157.35244653521886

   => Energetics <=

    Nuclear Repulsion Energy =            131.5048525353218452
    One-Electron Energy =                -471.1206944437622042
    Two-Electron Energy =                 182.2633953732214991
    DFT Exchange-Correlation Energy =       0.0000000000000000
    Empirical Dispersion Energy =           0.0000000000000000
    PCM Polarization Energy =               0.0000000000000000
    EFP Energy =                            0.0000000000000000
    Total Energy =                       -157.3524465352188599



Properties will be evaluated at   0.000000,   0.000000,   0.000000 Bohr

Properties computed using the SCF density matrix

  Nuclear Dipole Moment: (a.u.)
     X:    -0.0021      Y:    -0.0160      Z:     0.2887

  Electronic Dipole Moment: (a.u.)
     X:     0.0023      Y:     0.0170      Z:    -0.3088

  Dipole Moment: (a.u.)
     X:     0.0002      Y:     0.0009      Z:    -0.0201     Total:     0.0201

  Dipole Moment: (Debye)
     X:     0.0005      Y:     0.0024      Z:    -0.0511     Total:     0.0512


*** tstop() called on gpu-2-12.local at Wed Jun 14 14:33:44 2017
Module time:
	user time   =      83.35 seconds =       1.39 minutes
	system time =       2.55 seconds =       0.04 minutes
	total time  =         86 seconds =       1.43 minutes
Total time:
	user time   =     557.48 seconds =       9.29 minutes
	system time =      17.56 seconds =       0.29 minutes
	total time  =        575 seconds =       9.58 minutes

  //>>>>>>>>>>>>>>>>>>>>>>>>>>>>>>>>>>>//
  //               DFMP2               //
  //<<<<<<<<<<<<<<<<<<<<<<<<<<<<<<<<<<<//

   => Loading Basis Set <=

    Name: (AUG-CC-PVTZ AUX)
    Role: RIFIT
    Keyword: DF_BASIS_MP2
    atoms 1-3, 5-6, 8-9, 11-13 entry H          line    29 file /cbio/jclab/home/chayas/anaconda/envs/py35/share/psi4/basis/aug-cc-pvtz-ri.gbs 
    atoms 4, 7, 10, 14         entry C          line   147 file /cbio/jclab/home/chayas/anaconda/envs/py35/share/psi4/basis/aug-cc-pvtz-ri.gbs 

	 --------------------------------------------------------
	                          DF-MP2                         
	      2nd-Order Density-Fitted Moller-Plesset Theory     
	              RMP2 Wavefunction,   1 Threads             
	                                                         
	        Rob Parrish, Justin Turney, Andy Simmonett,      
	           Ed Hohenstein, and C. David Sherrill          
	 --------------------------------------------------------

   => Auxiliary Basis Set <=

  Basis Set: (AUG-CC-PVTZ AUX)
    Blend: AUG-CC-PVTZ-RI
    Number of shells: 252
    Number of basis function: 884
    Number of Cartesian functions: 1094
    Spherical Harmonics?: true
    Max angular momentum: 4

	 --------------------------------------------------------
	                 NBF =   414, NAUX =   884
	 --------------------------------------------------------
	   CLASS    FOCC     OCC    AOCC    AVIR     VIR    FVIR
	   PAIRS       0      17      17     397     397       0
	 --------------------------------------------------------


         ------------------------------------------------------------
                                     CPHF                           
                                  Rob Parrish                       
         ------------------------------------------------------------

  ==> Geometry <==

    Molecular point group: c1
    Full point group: C1

    Geometry (in Angstrom), charge = 0, multiplicity = 1:

       Center              X                  Y                   Z               Mass       
    ------------   -----------------  -----------------  -----------------  -----------------
           H         -1.920176798609     0.175770536808     1.154497137595     1.007825032070
           H         -2.208245370638     1.656038750395     0.244967208236     1.007825032070
           H         -2.321969821663     0.094125026059    -0.559261933222     1.007825032070
           C         -1.790618095157     0.658370793303     0.195354418141    12.000000000000
           H         -0.177493542700     1.205276647983    -1.112102175385     1.007825032070
           H          0.222860743740     1.286042042703     0.604745605455     1.007825032070
           C         -0.299008901759     0.716507087899    -0.153712677618    12.000000000000
           H         -0.234009201282    -1.345579929364     0.450696251278     1.007825032070
           H          0.203479384632    -1.072521017850    -1.236527126346     1.007825032070
           C          0.303572129907    -0.694677955574    -0.227070458348    12.000000000000
           H          2.204088196414    -1.675816918473     0.105477560000     1.007825032070
           H          1.894811235277    -0.307353009693     1.169627553765     1.007825032070
           H          2.334395551893    -0.033100821875    -0.514123137913     1.007825032070
           C          1.786244642389    -0.678762204993     0.159561465373    12.000000000000

  Nuclear repulsion =  131.504852535321845
  Reference energy  = -157.352446535218860

  ==> Basis Set <==

  Basis Set: AUG-CC-PVTZ
    Blend: AUG-CC-PVTZ
    Number of shells: 146
    Number of basis function: 414
    Number of Cartesian functions: 470
    Spherical Harmonics?: true
    Max angular momentum: 3

  ==> CGRSolver (by Rob Parrish) <==

   Number of roots    =         1
   Preconditioning    =    JACOBI
   Convergence cutoff =     1E-06
   Maximum iterations =       100

  ==> CPHFRHamiltonian (by Rob Parrish) <== 

  ==> DFJK: Density-Fitted J/K Matrices <==

    J tasked:                  Yes
    K tasked:                  Yes
    wK tasked:                  No
    OpenMP threads:              1
    Integrals threads:           1
    Memory (MB):               715
    Algorithm:                Core
    Integral Cache:           NONE
    Schwarz Cutoff:          1E-12
    Fitting Condition:       1E-12

   => Auxiliary Basis Set <=

  Basis Set: (AUG-CC-PVTZ AUX)
    Blend: AUG-CC-PVTZ-JKFIT
    Number of shells: 260
    Number of basis function: 876
    Number of Cartesian functions: 1074
    Spherical Harmonics?: true
    Max angular momentum: 4

  ==> CPHF Iterations <==

  => Iterations <=

             Iter  Converged  Remaining    Residual
  CGR           1          0          1   8.333E-02
  CGR           2          0          1   1.334E-02
  CGR           3          0          1   3.465E-03
  CGR           4          0          1   8.302E-04
  CGR           5          0          1   1.347E-04
  CGR           6          0          1   2.956E-05
  CGR           7          0          1   6.212E-06
  CGR           8          0          1   1.286E-06
  CGR           9          1          0   2.005E-07

    CGRSolver converged.

  ==> DFCorrGrad: Density-Fitted Correlated Gradients <==

    OpenMP threads:              1
    Integrals threads:           1
    Memory (MB):               715
    Schwarz Cutoff:          0E+00
    Fitting Condition:       1E-12

   => Auxiliary Basis Set <=

  Basis Set: (AUG-CC-PVTZ AUX)
    Blend: AUG-CC-PVTZ-JKFIT
    Number of shells: 260
    Number of basis function: 876
    Number of Cartesian functions: 1074
    Spherical Harmonics?: true
    Max angular momentum: 4

	-----------------------------------------------------------
	 ==================> DF-MP2 Energies <==================== 
	-----------------------------------------------------------
	 Reference Energy          =    -157.3524465352188599 [Eh]
	 Singles Energy            =      -0.0000000000000003 [Eh]
	 Same-Spin Energy          =      -0.1653506812235872 [Eh]
	 Opposite-Spin Energy      =      -0.6396680108485291 [Eh]
	 Correlation Energy        =      -0.8050186920721165 [Eh]
	 Total Energy              =    -158.1574652272909702 [Eh]
	-----------------------------------------------------------
	 ================> DF-SCS-MP2 Energies <================== 
	-----------------------------------------------------------
	 SCS Same-Spin Scale       =       0.3333333333333333 [-]
	 SCS Opposite-Spin Scale   =       1.2000000000000000 [-]
	 SCS Same-Spin Energy      =      -0.0551168937411957 [Eh]
	 SCS Opposite-Spin Energy  =      -0.7676016130182349 [Eh]
	 SCS Correlation Energy    =      -0.8227185067594309 [Eh]
	 SCS Total Energy          =    -158.1751650419782891 [Eh]
	-----------------------------------------------------------


  -Total Gradient:
     Atom            X                  Y                   Z
    ------   -----------------  -----------------  -----------------
       1        0.002101583724     0.001749353754    -0.003192375452
       2        0.003371261034    -0.002136784685    -0.000422647658
       3        0.003499679205     0.002334882132     0.001610754926
       4       -0.013235404986    -0.004678517413     0.004620696227
       5       -0.003109947738    -0.004604131451     0.001680323755
       6       -0.002523612929    -0.003801189570    -0.001517415696
       7        0.012356096988     0.015542770692    -0.002467371373
       8        0.002607159660     0.003923932945    -0.001022595484
       9        0.003043820433     0.004359031912     0.002388984144
      10       -0.012001936100    -0.015065538144    -0.004705112457
      11       -0.003408519549     0.002350588710    -0.000236779711
      12       -0.001913726732    -0.001295930362    -0.003369800188
      13       -0.003361125386    -0.002282002187     0.001142431129
      14        0.012574672375     0.003603533670     0.005490907837


*** tstop() called on gpu-2-12.local at Wed Jun 14 14:39:43 2017
Module time:
	user time   =     432.12 seconds =       7.20 minutes
	system time =      12.11 seconds =       0.20 minutes
	total time  =        445 seconds =       7.42 minutes
Total time:
	user time   =     906.25 seconds =      15.10 minutes
	system time =      27.12 seconds =       0.45 minutes
	total time  =        934 seconds =      15.57 minutes

			-----------------------------------------
			 OPTKING 2.0: for geometry optimizations 
			  - R.A. King,  Bethel University        
			-----------------------------------------

	Previous internal coordinate definitions found.
	---Fragment 1 Geometry and Gradient---
	 H          -3.6286082761        0.3321581768        2.1816834113
	 H          -4.1729789847        3.1294597037        0.4629209351
	 H          -4.3878870518        0.1778705215       -1.0568518903
	 C          -3.3837778084        1.2441404932        0.3691663491
	 H          -0.3354141861        2.2776427790       -2.1015685433
	 H           0.4211457714        2.4302672561        1.1428035744
	 C          -0.5650449356        1.3540021684       -0.2904748638
	 H          -0.4422133030       -2.5427775564        0.8516924840
	 H           0.3845203106       -2.0267709955       -2.3366976247
	 C           0.5736681871       -1.3127510866       -0.4291009791
	 H           4.1651230639       -3.1668350248        0.1993237016
	 H           3.5806743082       -0.5808130144        2.2102757541
	 H           4.4113682789       -0.0625514881       -0.9715519292
	 C           3.3755131804       -1.2826746768        0.3015274709
	             0.0021015837        0.0017493538       -0.0031923755
	             0.0033712610       -0.0021367847       -0.0004226477
	             0.0034996792        0.0023348821        0.0016107549
	            -0.0132354050       -0.0046785174        0.0046206962
	            -0.0031099477       -0.0046041315        0.0016803238
	            -0.0025236129       -0.0038011896       -0.0015174157
	             0.0123560970        0.0155427707       -0.0024673714
	             0.0026071597        0.0039239329       -0.0010225955
	             0.0030438204        0.0043590319        0.0023889841
	            -0.0120019361       -0.0150655381       -0.0047051125
	            -0.0034085195        0.0023505887       -0.0002367797
	            -0.0019137267       -0.0012959304       -0.0033698002
	            -0.0033611254       -0.0022820022        0.0011424311
	             0.0125746724        0.0036035337        0.0054909078

	---Fragment 1 Intrafragment Coordinates---
	 - Coordinate -           - BOHR/RAD -       - ANG/DEG -
	 R(1,4)           =         2.043740	       1.081500
	 R(2,4)           =         2.045986	       1.082689
	 R(3,4)           =         2.044186	       1.081736
	 R(4,7)           =         2.896973	       1.533012
	 R(5,7)           =         2.045948	       1.082669
	 R(6,7)           =         2.045778	       1.082579
	 R(7,10)          =         2.903008	       1.536206
	 R(8,10)          =         2.045828	       1.082606
	 R(9,10)          =         2.045611	       1.082491
	 R(10,14)         =         2.895696	       1.532337
	 R(11,14)         =         2.045480	       1.082422
	 R(12,14)         =         2.044021	       1.081649
	 R(13,14)         =         2.045098	       1.082219
	 B(1,4,2)         =         1.901113	     108.925741
	 B(1,4,3)         =         1.903997	     109.091017
	 B(1,4,7)         =         1.912849	     109.598156
	 B(2,4,3)         =         1.899847	     108.853191
	 B(2,4,7)         =         1.929225	     110.536441
	 B(3,4,7)         =         1.916517	     109.808314
	 B(4,7,5)         =         1.904864	     109.140658
	 B(4,7,6)         =         1.906534	     109.236350
	 B(4,7,10)        =         1.936595	     110.958746
	 B(5,7,6)         =         1.905589	     109.182179
	 B(5,7,10)        =         1.905418	     109.172436
	 B(6,7,10)        =         1.904603	     109.125705
	 B(7,10,8)        =         1.904593	     109.125144
	 B(7,10,9)        =         1.905939	     109.202266
	 B(7,10,14)       =         1.936867	     110.974328
	 B(8,10,9)        =         1.905020	     109.149634
	 B(8,10,14)       =         1.905777	     109.192987
	 B(9,10,14)       =         1.905390	     109.170821
	 B(10,14,11)      =         1.929799	     110.569342
	 B(10,14,12)      =         1.913784	     109.651724
	 B(10,14,13)      =         1.916884	     109.829347
	 B(11,14,12)      =         1.900968	     108.917438
	 B(11,14,13)      =         1.899617	     108.840057
	 B(12,14,13)      =         1.902451	     109.002400
	 D(1,4,7,5)       =        -3.136474	    -179.706721
	 D(1,4,7,6)       =        -1.054185	     -60.400378
	 D(1,4,7,10)      =         1.046298	      59.948434
	 D(2,4,7,5)       =        -1.040888	     -59.638478
	 D(2,4,7,6)       =         1.041401	      59.667865
	 D(2,4,7,10)      =        -3.141302	    -179.983323
	 D(3,4,7,5)       =         1.055477	      60.474378
	 D(3,4,7,6)       =         3.137766	     179.780721
	 D(3,4,7,10)      =        -1.044937	     -59.870466
	 D(4,7,10,8)      =        -0.519945	     -29.790629
	 D(4,7,10,9)      =         1.561141	      89.446778
	 D(4,7,10,14)     =        -2.620798	    -150.160691
	 D(5,7,10,8)      =        -2.620029	    -150.116609
	 D(5,7,10,9)      =        -0.538944	     -30.879202
	 D(5,7,10,14)     =         1.562302	      89.513328
	 D(6,7,10,8)      =         1.581684	      90.623836
	 D(6,7,10,9)      =        -2.620416	    -150.138757
	 D(6,7,10,14)     =        -0.519170	     -29.746227
	 D(7,10,14,11)    =        -3.141397	    -179.988807
	 D(7,10,14,12)    =         1.045422	      59.898254
	 D(7,10,14,13)    =        -1.044717	     -59.857884
	 D(8,10,14,11)    =         1.041637	      59.681387
	 D(8,10,14,12)    =        -1.054730	     -60.431552
	 D(8,10,14,13)    =         3.138317	     179.812310
	 D(9,10,14,11)    =        -1.039826	     -59.577627
	 D(9,10,14,12)    =        -3.136192	    -179.690566
	 D(9,10,14,13)    =         1.056854	      60.553296

	Current energy   :      -158.1574652273

	Energy change for the previous step:
		Projected    :        -0.0043486368
		Actual       :        -0.0029943859

	Performing BFGS update.
	Previous computed or guess Hessian on step 1.
	Steps to be used in Hessian update: 1
	Adding user-defined constraint: Fragment 1; Coordinate 49:
		Value =    -2.620798; Fixed value    =    -2.617990
		Force =     0.001474; Force constant =     0.525000
	Removing off-diagonal coupling between coordinate 49 and others.
	Taking RFO optimization step.
	Going to follow RFO solution 1.
	Using RFO vector 1.

	Determining step-restricting scale parameter for RS-RFO.
	Maximum step size allowed    0.10000

	 Iter      |step|        alpha        rfo_root  
	------------------------------------------------
	    0     0.20825       1.00000           1
	    1     0.16104       3.97302           1
	    2     0.12722      11.55287           1
	    3     0.10779      21.50913           1
	    4     0.10092      26.96689           1
	    5     0.10002      27.79303           1
	    6     0.10000      27.80731           1
	------------------------------------------------
	Norm of target step-size    0.10000
	Projected energy change by RFO approximation:        -0.0009845304

	Back-transformation to cartesian coordinates...
	Successfully converged to displaced geometry.

	--- Internal Coordinate Step in ANG or DEG, aJ/ANG or AJ/DEG ---
	 ---------------------------------------------------------------------------
	   Coordinate                Previous        Force       Change         New 
	   ----------                --------       ------       ------       ------
	    1 R(1,4)          =      1.081500     0.031831     0.005870     1.087370
	    2 R(2,4)          =      1.082689     0.027095     0.004778     1.087467
	    3 R(3,4)          =      1.081736     0.033454     0.006132     1.087869
	    4 R(4,7)          =      1.533012    -0.039934    -0.010525     1.522487
	    5 R(5,7)          =      1.082669     0.032255     0.005945     1.088614
	    6 R(6,7)          =      1.082579     0.035257     0.006601     1.089180
	    7 R(7,10)         =      1.536206    -0.025522    -0.006947     1.529259
	    8 R(8,10)         =      1.082606     0.035377     0.006612     1.089217
	    9 R(9,10)         =      1.082491     0.033208     0.006107     1.088598
	   10 R(10,14)        =      1.532337    -0.037516    -0.009936     1.522400
	   11 R(11,14)        =      1.082422     0.028581     0.005028     1.087450
	   12 R(12,14)        =      1.081649     0.031174     0.005755     1.087404
	   13 R(13,14)        =      1.082219     0.031102     0.005726     1.087946
	   14 B(1,4,2)        =    108.925741    -0.000143    -0.601477   108.324265
	   15 B(1,4,3)        =    109.091017    -0.000151    -0.804513   108.286504
	   16 B(1,4,7)        =    109.598156     0.000105     0.523099   110.121255
	   17 B(2,4,3)        =    108.853191    -0.000156    -0.657232   108.195960
	   18 B(2,4,7)        =    110.536441     0.000204     0.838984   111.375425
	   19 B(3,4,7)        =    109.808314     0.000133     0.637663   110.445976
	   20 B(4,7,5)        =    109.140658    -0.000035     0.215047   109.355705
	   21 B(4,7,6)        =    109.236350    -0.000049    -0.107500   109.128850
	   22 B(4,7,10)       =    110.958746     0.000270     1.088160   112.046905
	   23 B(5,7,6)        =    109.182179    -0.000091    -1.176377   108.005803
	   24 B(5,7,10)       =    109.172436    -0.000044     0.050329   109.222765
	   25 B(6,7,10)       =    109.125705    -0.000057    -0.131665   108.994039
	   26 B(7,10,8)       =    109.125144    -0.000058    -0.136026   108.989118
	   27 B(7,10,9)       =    109.202266    -0.000046     0.035186   109.237452
	   28 B(7,10,14)      =    110.974328     0.000270     1.081657   112.055985
	   29 B(8,10,9)       =    109.149634    -0.000089    -1.162326   107.987308
	   30 B(8,10,14)      =    109.192987    -0.000044    -0.080931   109.112056
	   31 B(9,10,14)      =    109.170821    -0.000037     0.200131   109.370952
	   32 B(10,14,11)     =    110.569342     0.000202     0.820214   111.389555
	   33 B(10,14,12)     =    109.651724     0.000095     0.479370   110.131094
	   34 B(10,14,13)     =    109.829347     0.000131     0.627919   110.457266
	   35 B(11,14,12)     =    108.917438    -0.000139    -0.589515   108.327923
	   36 B(11,14,13)     =    108.840057    -0.000155    -0.648923   108.191133
	   37 B(12,14,13)     =    109.002400    -0.000142    -0.751833   108.250567
	   38 D(1,4,7,5)      =   -179.706721     0.000017     0.780245  -178.926476
	   39 D(1,4,7,6)      =    -60.400378    -0.000020    -0.581268   -60.981646
	   40 D(1,4,7,10)     =     59.948434    -0.000004    -0.124022    59.824412
	   41 D(2,4,7,5)      =    -59.638478     0.000021     0.908094   -58.730384
	   42 D(2,4,7,6)      =     59.667865    -0.000015    -0.453419    59.214446
	   43 D(2,4,7,10)     =   -179.983323     0.000000     0.003827  -179.979496
[...]
	 Opposite-Spin Energy      =      -0.6396695961962062 [Eh]
	 Correlation Energy        =      -0.8051088059820044 [Eh]
	 Total Energy              =    -158.1588147997157989 [Eh]
	-----------------------------------------------------------
	 ================> DF-SCS-MP2 Energies <================== 
	-----------------------------------------------------------
	 SCS Same-Spin Scale       =       0.3333333333333333 [-]
	 SCS Opposite-Spin Scale   =       1.2000000000000000 [-]
	 SCS Same-Spin Energy      =      -0.0551464032619327 [Eh]
	 SCS Opposite-Spin Energy  =      -0.7676035154354475 [Eh]
	 SCS Correlation Energy    =      -0.8227499186973802 [Eh]
	 SCS Total Energy          =    -158.1764559124311802 [Eh]
	-----------------------------------------------------------


  -Total Gradient:
     Atom            X                  Y                   Z
    ------   -----------------  -----------------  -----------------
       1       -0.000000689289     0.000001088984    -0.000004307006
       2       -0.000001102960    -0.000003848273    -0.000000515232
       3       -0.000005398263     0.000000931112     0.000004841746
       4        0.000631309558     0.000150508373     0.002664687186
       5        0.000009500579     0.000007686363     0.000008892483
       6       -0.000004451885     0.000004954225    -0.000010611009
       7       -0.001134196549    -0.000377215285    -0.002678938081
       8        0.000004995371    -0.000003654624    -0.000010931282
       9       -0.000009285638    -0.000008465406     0.000007791636
      10        0.001177809462     0.000665960816    -0.002602584704
      11        0.000001377805     0.000004098503     0.000000131771
      12        0.000001078536    -0.000000812763    -0.000004378750
      13        0.000005775383    -0.000001561100     0.000004834138
      14       -0.000676722112    -0.000439670927     0.002621087102


*** tstop() called on gpu-2-12.local at Wed Jun 14 15:18:11 2017
Module time:
	user time   =     309.23 seconds =       5.15 minutes
	system time =       7.77 seconds =       0.13 minutes
	total time  =        317 seconds =       5.28 minutes
Total time:
	user time   =    3146.90 seconds =      52.45 minutes
	system time =      91.98 seconds =       1.53 minutes
	total time  =       3242 seconds =      54.03 minutes

			-----------------------------------------
			 OPTKING 2.0: for geometry optimizations 
			  - R.A. King,  Bethel University        
			-----------------------------------------

	Previous internal coordinate definitions found.
	---Fragment 1 Geometry and Gradient---
	 H          -3.6601215690        0.3994424711        2.2150541047
	 H          -4.2095093881        3.1328071888        0.3964548945
	 H          -4.4245302479        0.1251121756       -1.0064280469
	 C          -3.3821238494        1.2515742983        0.3644688775
	 H          -0.2947779737        2.3217404149       -2.0645927275
	 H           0.3940476617        2.4278421864        1.1581037006
	 C          -0.5901805209        1.3299498605       -0.2840084094
	 H          -0.4106166502       -2.5392774038        0.8799640283
	 H           0.3302779476       -2.0830631437       -2.3003614087
	 C           0.5958885454       -1.2915766327       -0.4177059535
	 H           4.2052962097       -3.1610929804        0.1207485895
	 H           3.6240844444       -0.6418011360        2.2173497140
	 H           4.4403872228       -0.0185800178       -0.9422009696
	 C           3.3768745822       -1.2868509631        0.2806315963
	            -0.0000006893        0.0000010890       -0.0000043070
	            -0.0000011030       -0.0000038483       -0.0000005152
	            -0.0000053983        0.0000009311        0.0000048417
	             0.0006313096        0.0001505084        0.0026646872
	             0.0000095006        0.0000076864        0.0000088925
	            -0.0000044519        0.0000049542       -0.0000106110
	            -0.0011341965       -0.0003772153       -0.0026789381
	             0.0000049954       -0.0000036546       -0.0000109313
	            -0.0000092856       -0.0000084654        0.0000077916
	             0.0011778095        0.0006659608       -0.0026025847
	             0.0000013778        0.0000040985        0.0000001318
	             0.0000010785       -0.0000008128       -0.0000043787
	             0.0000057754       -0.0000015611        0.0000048341
	            -0.0006767221       -0.0004396709        0.0026210871

	---Fragment 1 Intrafragment Coordinates---
	 - Coordinate -           - BOHR/RAD -       - ANG/DEG -
	 R(1,4)           =         2.056229	       1.088109
	 R(2,4)           =         2.055390	       1.087665
	 R(3,4)           =         2.057884	       1.088985
	 R(4,7)           =         2.867336	       1.517329
	 R(5,7)           =         2.059464	       1.089821
	 R(6,7)           =         2.062465	       1.091409
	 R(7,10)          =         2.880458	       1.524273
	 R(8,10)          =         2.062464	       1.091409
	 R(9,10)          =         2.059464	       1.089821
	 R(10,14)         =         2.867330	       1.517326
	 R(11,14)         =         2.055390	       1.087666
	 R(12,14)         =         2.056229	       1.088110
	 R(13,14)         =         2.057885	       1.088986
	 B(1,4,2)         =         1.886907	     108.111787
	 B(1,4,3)         =         1.879911	     107.710956
	 B(1,4,7)         =         1.924647	     110.274155
	 B(2,4,3)         =         1.883328	     107.906724
	 B(2,4,7)         =         1.950302	     111.744094
	 B(3,4,7)         =         1.936413	     110.948312
	 B(4,7,5)         =         1.926621	     110.387259
	 B(4,7,6)         =         1.897663	     108.728093
	 B(4,7,10)        =         1.967693	     112.740490
	 B(5,7,6)         =         1.854311	     106.244180
	 B(5,7,10)        =         1.916751	     109.821734
	 B(6,7,10)        =         1.896975	     108.688668
	 B(7,10,8)        =         1.896976	     108.688701
	 B(7,10,9)        =         1.916751	     109.821725
	 B(7,10,14)       =         1.967695	     112.740637
	 B(8,10,9)        =         1.854313	     106.244315
	 B(8,10,14)       =         1.897661	     108.727944
	 B(9,10,14)       =         1.926618	     110.387103
	 B(10,14,11)      =         1.950304	     111.744204
	 B(10,14,12)      =         1.924651	     110.274355
	 B(10,14,13)      =         1.936419	     110.948618
	 B(11,14,12)      =         1.886901	     108.111489
	 B(11,14,13)      =         1.883324	     107.906494
	 B(12,14,13)      =         1.879909	     107.710837
	 D(1,4,7,5)       =        -3.060156	    -175.334018
	 D(1,4,7,6)       =        -1.032528	     -59.159509
	 D(1,4,7,10)      =         1.072241	      61.434897
	 D(2,4,7,5)       =        -0.960995	     -55.060974
	 D(2,4,7,6)       =         1.066632	      61.113535
	 D(2,4,7,10)      =        -3.111783	    -178.292059
	 D(3,4,7,5)       =         1.141660	      65.412325
	 D(3,4,7,6)       =        -3.113897	    -178.413166
	 D(3,4,7,10)      =        -1.009128	     -57.818760
	 D(4,7,10,8)      =        -0.520654	     -29.831278
	 D(4,7,10,9)      =         1.501101	      86.006756
	 D(4,7,10,14)     =        -2.625816	    -150.448183
	 D(5,7,10,8)      =        -2.676924	    -153.376444
	 D(5,7,10,9)      =        -0.655169	     -37.538409
	 D(5,7,10,14)     =         1.501099	      86.006652
	 D(6,7,10,8)      =         1.584509	      90.785698
	 D(6,7,10,9)      =        -2.676921	    -153.376268
	 D(6,7,10,14)     =        -0.520653	     -29.831207
	 D(7,10,14,11)    =        -3.111790	    -178.292437
	 D(7,10,14,12)    =         1.072238	      61.434688
	 D(7,10,14,13)    =        -1.009134	     -57.819145
	 D(8,10,14,11)    =         1.066625	      61.113124
	 D(8,10,14,12)    =        -1.032532	     -59.159751
	 D(8,10,14,13)    =        -3.113904	    -178.413584
	 D(9,10,14,11)    =        -0.961002	     -55.061374
	 D(9,10,14,12)    =        -3.060160	    -175.334249
	 D(9,10,14,13)    =         1.141653	      65.411918

	Current energy   :      -158.1588147997

	Energy change for the previous step:
		Projected    :         0.0000020871
		Actual       :        -0.0000006662

	Performing BFGS update.
	Previous computed or guess Hessian on step 1.
	Steps to be used in Hessian update: 7 6
	Adding user-defined constraint: Fragment 1; Coordinate 49:
		Value =    -2.625816; Fixed value    =    -2.617990
		Force =     0.005283; Force constant =     0.675000
	Removing off-diagonal coupling between coordinate 49 and others.
	Taking RFO optimization step.
	Going to follow RFO solution 1.
	Rejecting RFO root 1 because normalization gives large value.
	Using RFO vector 2.

	Determining step-restricting scale parameter for RS-RFO.
	Maximum step size allowed    0.10000

	 Iter      |step|        alpha        rfo_root  
	------------------------------------------------
	    0   354.81053       1.00000           2
	    1   177.42994       1.99971           2
	    2    88.73964       3.99829           2
	    3    44.39450       7.99201           2
	    4    22.22194      15.96577           2
	    5    11.13570      31.85874           2
	    6     5.59263      63.42758           2
	    7     2.82121     125.70614           2
	    8     1.43574     246.89911           2
	    9     0.74346     476.38840           2
	   10     0.39825     887.96492           2
	   11     0.22748    1550.77209           2
	   12     0.14562    2414.88176           2
	   13     0.11081    3164.82645           2
	   14     0.10095    3470.15850           2
	   15     0.10001    3502.47173           2
	------------------------------------------------
	Norm of target step-size    0.10001
	Projected energy change by RFO approximation:        -0.0000134500

	Back-transformation to cartesian coordinates...
	Could not converge backtransformation.
	Using first guess instead.

	--- Internal Coordinate Step in ANG or DEG, aJ/ANG or AJ/DEG ---
	 ---------------------------------------------------------------------------
	   Coordinate                Previous        Force       Change         New 
	   ----------                --------       ------       ------       ------
	    1 R(1,4)          =      1.088109     0.000035    -0.000123     1.087987
	    2 R(2,4)          =      1.087665     0.000025     0.000159     1.087824
	    3 R(3,4)          =      1.088985     0.000008     0.000062     1.089047
	    4 R(4,7)          =      1.517329     0.000075     0.001818     1.519146
	    5 R(5,7)          =      1.089821     0.000022    -0.000542     1.089279
	    6 R(6,7)          =      1.091409     0.000057     0.000181     1.091590
	    7 R(7,10)         =      1.524273    -0.000088     0.001072     1.525345
	    8 R(8,10)         =      1.091409     0.000059     0.000186     1.091595
	    9 R(9,10)         =      1.089821     0.000022    -0.000556     1.089266
	   10 R(10,14)        =      1.517326     0.000087     0.001740     1.519065
	   11 R(11,14)        =      1.087666     0.000026     0.000150     1.087816
	   12 R(12,14)        =      1.088110     0.000035    -0.000099     1.088010
	   13 R(13,14)        =      1.088986     0.000007     0.000116     1.089102
	   14 B(1,4,2)        =    108.111787     0.000000     0.093038   108.204825
	   15 B(1,4,3)        =    107.710956     0.000000     0.129677   107.840633
	   16 B(1,4,7)        =    110.274155     0.000000    -0.233189   110.040966
	   17 B(2,4,3)        =    107.906724     0.000000     0.058601   107.965325
	   18 B(2,4,7)        =    111.744094    -0.000000    -0.000084   111.744010
	   19 B(3,4,7)        =    110.948312    -0.000001    -0.034393   110.913919
	   20 B(4,7,5)        =    110.387259     0.000005    -0.309069   110.078191
	   21 B(4,7,6)        =    108.728093    -0.000005    -0.052634   108.675459
	   22 B(4,7,10)       =    112.740490    -0.000001    -0.006440   112.734051
	   23 B(5,7,6)        =    106.244180     0.000000     0.247146   106.491326
	   24 B(5,7,10)       =    109.821734     0.000000     0.119444   109.941178
	   25 B(6,7,10)       =    108.688668     0.000000     0.019680   108.708349
	   26 B(7,10,8)       =    108.688701     0.000000     0.021429   108.710130
	   27 B(7,10,9)       =    109.821725     0.000000     0.121792   109.943517
	   28 B(7,10,14)      =    112.740637    -0.000001    -0.008835   112.731801
	   29 B(8,10,9)       =    106.244315     0.000000     0.245222   106.489538
	   30 B(8,10,14)      =    108.727944    -0.000005    -0.053337   108.674606
	   31 B(9,10,14)      =    110.387103     0.000005    -0.308152   110.078951
	   32 B(10,14,11)     =    111.744204    -0.000000    -0.002132   111.742072
	   33 B(10,14,12)     =    110.274355     0.000000    -0.238223   110.036132
	   34 B(10,14,13)     =    110.948618    -0.000001    -0.045412   110.903206
	   35 B(11,14,12)     =    108.111489     0.000000     0.100560   108.212049
	   36 B(11,14,13)     =    107.906494     0.000000     0.066291   107.972786
	   37 B(12,14,13)     =    107.710837     0.000000     0.133410   107.844247
	   38 D(1,4,7,5)      =   -175.334018     0.000000     1.248005  -174.086012
	   39 D(1,4,7,6)      =    -59.159509     0.000000     1.342291   -57.817218
	   40 D(1,4,7,10)     =     61.434897    -0.000001     1.326797    62.761694
	   41 D(2,4,7,5)      =    -55.060974     0.000000     1.207727   -53.853247
	   42 D(2,4,7,6)      =     61.113535     0.000000     1.302012    62.415547
	   43 D(2,4,7,10)     =   -178.292059    -0.000001     1.286519  -177.005541
	   44 D(3,4,7,5)      =     65.412325     0.000000     1.258586    66.670911
	   45 D(3,4,7,6)      =   -178.413166     0.000000     1.352871  -177.060295
	   46 D(3,4,7,10)     =    -57.818760    -0.000001     1.337378   -56.481382
	   47 D(4,7,10,8)     =    -29.831278     0.000001     0.160645   -29.670633
	   48 D(4,7,10,9)     =     86.006756     0.000002     0.534140    86.540896
	   49 D(4,7,10,14)    =   -150.448183     0.000003     0.218767  -150.229415
	   50 D(5,7,10,8)     =   -153.376444     0.000000     0.477243  -152.899201
	   51 D(5,7,10,9)     =    -37.538409     0.000000     0.850737   -36.687672
	   52 D(5,7,10,14)    =     86.006652     0.000002     0.535364    86.542016
	   53 D(6,7,10,8)     =     90.785698    -0.000000     0.103744    90.889441
	   54 D(6,7,10,9)     =   -153.376268     0.000000     0.477238  -152.899030
	   55 D(6,7,10,14)    =    -29.831207     0.000001     0.161866   -29.669341
	   56 D(7,10,14,11)   =   -178.292437    -0.000001     1.290027  -177.002410
	   57 D(7,10,14,12)   =     61.434688    -0.000001     1.325563    62.760251
	   58 D(7,10,14,13)   =    -57.819145    -0.000001     1.341699   -56.477446
	   59 D(8,10,14,11)   =     61.113124     0.000000     1.305335    62.418459
	   60 D(8,10,14,12)   =    -59.159751     0.000000     1.340871   -57.818880
	   61 D(8,10,14,13)   =   -178.413584     0.000000     1.357007  -177.056576
	   62 D(9,10,14,11)   =    -55.061374     0.000000     1.213254   -53.848120
	   63 D(9,10,14,12)   =   -175.334249     0.000000     1.248790  -174.085459
	   64 D(9,10,14,13)   =     65.411918     0.000000     1.264927    66.676845
	 ---------------------------------------------------------------------------
	Successfully symmetrized geometry.
	 Forces used to impose fixed constraints are not included.
	  Forces zeroed: 49 

  ==> Convergence Check <==

  Measures of convergence in internal coordinates in au.
  Criteria marked as inactive (o), active & met (*), and active & unmet ( ).
  ---------------------------------------------------------------------------------------------
   Step     Total Energy     Delta E     MAX Force     RMS Force      MAX Disp      RMS Disp   
  ---------------------------------------------------------------------------------------------
    Convergence Criteria    1.00e-06 *    3.00e-04 *             o    1.20e-03 *             o
  ---------------------------------------------------------------------------------------------
      8    -158.15881480   -6.66e-07 *    9.03e-05 *    3.05e-05 o    2.37e-02      1.25e-02 o  ~
  ---------------------------------------------------------------------------------------------


  **** Optimization is complete! (in 8 steps) ****

  ==> Optimization Summary <==

  Measures of convergence in internal coordinates in au.
  --------------------------------------------------------------------------------------------------------------- ~
   Step         Total Energy             Delta E       MAX Force       RMS Force        MAX Disp        RMS Disp  ~
  --------------------------------------------------------------------------------------------------------------- ~
      1    -158.154470841423   -158.154470841423      0.01284546      0.00556039      0.02565444      0.01251555  ~
      2    -158.157465227291     -0.002994385868      0.00484709      0.00221407      0.03707895      0.01251641  ~
      3    -158.158474914740     -0.001009687449      0.00181585      0.00065489      0.04679273      0.01249229  ~
      4    -158.158750814321     -0.000275899580      0.00076537      0.00020737      0.02751753      0.01249787  ~
      5    -158.158811421063     -0.000060606743      0.00014218      0.00005721      0.01463977      0.00724388  ~
      6    -158.158822376391     -0.000010955327      0.00029686      0.00006523      0.00516531      0.00259308  ~
      7    -158.158814133518      0.000008242873      0.00010023      0.00003683      0.00442903      0.00216257  ~
      8    -158.158814799716     -0.000000666198      0.00017342      0.00003739      0.02368424      0.01249640  ~
  --------------------------------------------------------------------------------------------------------------- ~

	Writing optimization data to binary file.
	Final energy is   -158.1588147997158
	Final (previous) structure:
	Cartesian Geometry (in Angstrom)
	    H    -1.9368529150   0.2113758518   1.1721561480
	    H    -2.2275764275   1.6578101632   0.2097948944
	    H    -2.3413605659   0.0662065118  -0.5325787845
	    C    -1.7897428578   0.6623045935   0.1928686232
	    H    -0.1559897853   1.2286121118  -1.0925354164
	    H     0.2085210417   1.2847587511   0.6128420836
	    C    -0.3123100806   0.7037791547  -0.1502907773
	    H    -0.2172889727  -1.3437277284   0.4656569081
	    H     0.1747755624  -1.1023095397  -1.2172988290
	    C     0.3153306371  -0.6834729172  -0.2210404705
	    H     2.2253469095  -1.6727783595   0.0638974016
	    H     1.9177828900  -0.3396265336   1.1733709321
	    H     2.3497517156  -0.0098321219  -0.4985912790
	    C     1.7869650651  -0.6809722005   0.1485038448
	Saving final (previous) structure.
			--------------------------
			 OPTKING Finished Execution 
			--------------------------

    Final optimized geometry and variables:
    Molecular point group: c1
    Full point group: C1

    Geometry (in Angstrom), charge = 0, multiplicity = 1:

    H           -1.936852914965     0.211375851848     1.172156147991
    H           -2.227576427508     1.657810163195     0.209794894414
    H           -2.341360565883     0.066206511832    -0.532578784481
    C           -1.789742857756     0.662304593539     0.192868623194
    H           -0.155989785294     1.228612111828    -1.092535416392
    H            0.208521041692     1.284758751076     0.612842083559
    C           -0.312310080640     0.703779154718    -0.150290777325
    H           -0.217288972735    -1.343727728371     0.465656908136
    H            0.174775562366    -1.102309539711    -1.217298829015
    C            0.315330637061    -0.683472917190    -0.221040470462
    H            2.225346909545    -1.672778359480     0.063897401552
    H            1.917782889995    -0.339626533614     1.173370932140
    H            2.349751715642    -0.009832121934    -0.498591279022
    C            1.786965065149    -0.680972200509     0.148503844773

	Cleaning optimization helper files.

*** Psi4 exiting successfully. Buy a developer a beer!
