
    -----------------------------------------------------------------------
          Psi4: An Open-Source Ab Initio Electronic Structure Package
                               Psi4 1.1 release

                         Git: Rev {HEAD} add49b9 


    R. M. Parrish, L. A. Burns, D. G. A. Smith, A. C. Simmonett,
    A. E. DePrince III, E. G. Hohenstein, U. Bozkaya, A. Yu. Sokolov,
    R. Di Remigio, R. M. Richard, J. F. Gonthier, A. M. James,
    H. R. McAlexander, A. Kumar, M. Saitow, X. Wang, B. P. Pritchard,
    P. Verma, H. F. Schaefer III, K. Patkowski, R. A. King, E. F. Valeev,
    F. A. Evangelista, J. M. Turney, T. D. Crawford, and C. D. Sherrill,
    J. Chem. Theory Comput. in press (2017).
    (doi: 10.1021/acs.jctc.7b00174)

    -----------------------------------------------------------------------


    Psi4 started on: Wednesday, 14 June 2017 02:23PM

    Process ID:  27271
    PSIDATADIR: /cbio/jclab/home/chayas/anaconda/envs/py35/share/psi4
    Memory:     500.0 MiB
    Threads:    1
    
  ==> Input File <==

--------------------------------------------------------------------------

memory 1000 mb

molecule butane {
  symmetry C1
  0 1 
  H      1.624   0.807   -9.001
  H      1.948   2.493   -9.329
  H      2.570   1.260   -10.398
  C      2.345   1.500   -9.381
  H      4.352   2.109   -8.918
  H      3.407   1.657   -7.519
  C      3.631   1.416   -8.537
  H      3.665   -0.647   -7.940
  H      4.104   -0.384   -9.610
  C      4.203   -0.012   -8.612
  H      6.088   -0.983   -8.270
  H      5.791   0.381   -7.220
  H      6.230   0.644   -8.890
  C      5.691   0.009   -8.218
  units Angstrom
}

dih_string = "14 10 7 4 160"
set optking fixed_dihedral = $dih_string

optimize('MP2/aug-cc-pvtz')
--------------------------------------------------------------------------

  Memory set to 953.674 MiB by Python driver.
gradient() will perform analytic gradient computation.

*** tstart() called on cpu-6-2.local
*** at Wed Jun 14 14:23:34 2017

    SCF Algorithm Type (re)set to DF.

*** tstart() called on cpu-6-2.local
*** at Wed Jun 14 14:23:34 2017

   => Loading Basis Set <=

    Name: AUG-CC-PVTZ
    Role: ORBITAL
    Keyword: BASIS
    atoms 1-3, 5-6, 8-9, 11-13 entry H          line    34 file /cbio/jclab/home/chayas/anaconda/envs/py35/share/psi4/basis/aug-cc-pvtz.gbs 
    atoms 4, 7, 10, 14         entry C          line   221 file /cbio/jclab/home/chayas/anaconda/envs/py35/share/psi4/basis/aug-cc-pvtz.gbs 


         ---------------------------------------------------------
                                   SCF
            by Justin Turney, Rob Parrish, and Andy Simmonett
                              RHF Reference
                        1 Threads,    953 MiB Core
         ---------------------------------------------------------

  ==> Geometry <==

    Molecular point group: c1
    Full point group: C1

    Geometry (in Angstrom), charge = 0, multiplicity = 1:

       Center              X                  Y                   Z               Mass       
    ------------   -----------------  -----------------  -----------------  -----------------
           H         -2.345304699741     0.077804267924    -0.310095601521     1.007825032070
           H         -2.021304699741     1.763804267924    -0.638095601521     1.007825032070
           H         -1.399304699741     0.530804267924    -1.707095601521     1.007825032070
           C         -1.624304699741     0.770804267924    -0.690095601521    12.000000000000
           H          0.382695300259     1.379804267924    -0.227095601521     1.007825032070
           H         -0.562304699741     0.927804267924     1.171904398479     1.007825032070
           C         -0.338304699741     0.686804267924     0.153904398479    12.000000000000
           H         -0.304304699741    -1.376195732076     0.750904398479     1.007825032070
           H          0.134695300259    -1.113195732076    -0.919095601521     1.007825032070
           C          0.233695300259    -0.741195732076     0.078904398479    12.000000000000
           H          2.118695300259    -1.712195732076     0.420904398479     1.007825032070
           H          1.821695300259    -0.348195732076     1.470904398479     1.007825032070
           H          2.260695300259    -0.085195732076    -0.199095601521     1.007825032070
           C          1.721695300259    -0.720195732076     0.472904398479    12.000000000000

  Running in c1 symmetry.

  Rotational constants: A =      0.74159  B =      0.12542  C =      0.11798 [cm^-1]
  Rotational constants: A =  22232.44813  B =   3760.12607  C =   3537.09323 [MHz]
  Nuclear repulsion =  131.912736083378661

  Charge       = 0
  Multiplicity = 1
  Electrons    = 34
  Nalpha       = 17
  Nbeta        = 17

  ==> Algorithm <==

  SCF Algorithm Type is DF.
  DIIS enabled.
  MOM disabled.
  Fractional occupation disabled.
  Guess Type is SAD.
  Energy threshold   = 1.00e-10
  Density threshold  = 1.00e-10
  Integral threshold = 0.00e+00

  ==> Primary Basis <==

  Basis Set: AUG-CC-PVTZ
    Blend: AUG-CC-PVTZ
    Number of shells: 146
    Number of basis function: 414
    Number of Cartesian functions: 470
    Spherical Harmonics?: true
    Max angular momentum: 3

   => Loading Basis Set <=

    Name: (AUG-CC-PVTZ AUX)
    Role: JKFIT
    Keyword: DF_BASIS_SCF
    atoms 1-3, 5-6, 8-9, 11-13 entry H          line    69 file /cbio/jclab/home/chayas/anaconda/envs/py35/share/psi4/basis/aug-cc-pvtz-jkfit.gbs 
    atoms 4, 7, 10, 14         entry C          line   161 file /cbio/jclab/home/chayas/anaconda/envs/py35/share/psi4/basis/aug-cc-pvtz-jkfit.gbs 

  ==> Pre-Iterations <==

   -------------------------------------------------------
    Irrep   Nso     Nmo     Nalpha   Nbeta   Ndocc  Nsocc
   -------------------------------------------------------
     A        414     414       0       0       0       0
   -------------------------------------------------------
    Total     414     414      17      17      17       0
   -------------------------------------------------------

  ==> Integral Setup <==

  ==> DFJK: Density-Fitted J/K Matrices <==

    J tasked:                  Yes
    K tasked:                  Yes
    wK tasked:                  No
    OpenMP threads:              1
    Integrals threads:           1
    Memory (MB):               715
    Algorithm:                Core
    Integral Cache:           NONE
    Schwarz Cutoff:          1E-12
    Fitting Condition:       1E-12

   => Auxiliary Basis Set <=

  Basis Set: (AUG-CC-PVTZ AUX)
    Blend: AUG-CC-PVTZ-JKFIT
    Number of shells: 260
    Number of basis function: 876
    Number of Cartesian functions: 1074
    Spherical Harmonics?: true
    Max angular momentum: 4

  Minimum eigenvalue in the overlap matrix is 8.4878825681E-06.
  Using Symmetric Orthogonalization.

  SCF Guess: Superposition of Atomic Densities via on-the-fly atomic UHF.

  ==> Iterations <==

                           Total Energy        Delta E     RMS |[F,P]|

   @DF-RHF iter   0:  -158.96557435496663   -1.58966e+02   9.47106e-03 
   @DF-RHF iter   1:  -157.23418781217367    1.73139e+00   9.35885e-04 
   @DF-RHF iter   2:  -157.33834694151417   -1.04159e-01   2.94576e-04 DIIS
   @DF-RHF iter   3:  -157.34936412037996   -1.10172e-02   1.12991e-04 DIIS
   @DF-RHF iter   4:  -157.35120524125685   -1.84112e-03   2.00791e-05 DIIS
   @DF-RHF iter   5:  -157.35128654517681   -8.13039e-05   5.20676e-06 DIIS
   @DF-RHF iter   6:  -157.35129146217957   -4.91700e-06   1.60650e-06 DIIS
   @DF-RHF iter   7:  -157.35129182720749   -3.65028e-07   2.60483e-07 DIIS
   @DF-RHF iter   8:  -157.35129184312245   -1.59150e-08   4.81447e-08 DIIS
   @DF-RHF iter   9:  -157.35129184364214   -5.19691e-10   1.21493e-08 DIIS
   @DF-RHF iter  10:  -157.35129184366994   -2.77964e-11   4.04178e-09 DIIS
   @DF-RHF iter  11:  -157.35129184367233   -2.38742e-12   9.36531e-10 DIIS
   @DF-RHF iter  12:  -157.35129184367389   -1.56319e-12   1.94240e-10 DIIS
   @DF-RHF iter  13:  -157.35129184367207    1.81899e-12   4.97099e-11 DIIS

  ==> Post-Iterations <==

    Orbital Energies (a.u.)
    -----------------------

    Doubly Occupied:                                                      

       1A    -11.206630     2A    -11.206028     3A    -11.198942  
       4A    -11.198897     5A     -1.070803     6A     -0.981134  
       7A     -0.862021     8A     -0.794715     9A     -0.646612  
      10A     -0.587158    11A     -0.582395    12A     -0.565281  
      13A     -0.514212    14A     -0.505157    15A     -0.474081  
      16A     -0.468571    17A     -0.441593  

    Virtual:                                                              

      18A      0.032253    19A      0.037222    20A      0.039504  
      21A      0.040493    22A      0.056773    23A      0.059269  
      24A      0.059994    25A      0.061213    26A      0.075873  
      27A      0.082531    28A      0.107238    29A      0.114535  
      30A      0.123839    31A      0.129157    32A      0.135293  
      33A      0.139391    34A      0.142719    35A      0.142849  
      36A      0.148358    37A      0.157100    38A      0.159025  
      39A      0.167283    40A      0.171482    41A      0.201251  
      42A      0.209229    43A      0.213638    44A      0.232187  
      45A      0.241216    46A      0.251550    47A      0.259532  
      48A      0.266418    49A      0.280499    50A      0.286945  
      51A      0.291319    52A      0.313041    53A      0.313410  
      54A      0.331182    55A      0.335055    56A      0.342288  
      57A      0.343288    58A      0.353482    59A      0.361497  
      60A      0.362343    61A      0.367929    62A      0.374557  
      63A      0.383594    64A      0.385042    65A      0.388813  
      66A      0.390878    67A      0.396688    68A      0.398639  
      69A      0.412558    70A      0.419328    71A      0.428558  
      72A      0.430743    73A      0.444214    74A      0.445630  
      75A      0.447787    76A      0.456979    77A      0.463674  
      78A      0.476116    79A      0.476921    80A      0.482294  
      81A      0.490046    82A      0.492524    83A      0.498958  
      84A      0.505324    85A      0.507612    86A      0.519919  
      87A      0.525636    88A      0.530396    89A      0.530771  
      90A      0.542852    91A      0.543317    92A      0.564011  
      93A      0.565710    94A      0.577032    95A      0.580313  
      96A      0.592716    97A      0.595693    98A      0.611378  
      99A      0.625870   100A      0.626307   101A      0.642416  
     102A      0.662289   103A      0.681149   104A      0.687102  
     105A      0.687978   106A      0.707074   107A      0.761265  
     108A      0.789849   109A      0.798918   110A      0.811213  
     111A      0.828551   112A      0.832317   113A      0.834057  
     114A      0.834355   115A      0.857443   116A      0.858323  
     117A      0.861934   118A      0.877059   119A      0.884369  
     120A      0.888451   121A      0.898095   122A      0.901579  
     123A      0.904552   124A      0.912419   125A      0.922583  
     126A      0.929083   127A      0.940120   128A      0.943177  
     129A      0.950981   130A      0.957357   131A      0.958707  
     132A      0.980721   133A      0.984939   134A      0.994089  
     135A      0.996296   136A      1.009295   137A      1.022754  
     138A      1.023502   139A      1.037751   140A      1.043963  
     141A      1.064696   142A      1.084635   143A      1.104339  
     144A      1.108117   145A      1.120459   146A      1.125056  
     147A      1.125541   148A      1.135430   149A      1.139987  
     150A      1.156875   151A      1.161581   152A      1.176660  
     153A      1.181422   154A      1.196822   155A      1.198526  
     156A      1.212311   157A      1.220058   158A      1.235937  
     159A      1.239555   160A      1.257434   161A      1.271408  
     162A      1.272716   163A      1.281887   164A      1.287195  
     165A      1.297779   166A      1.314752   167A      1.315758  
     168A      1.341167   169A      1.347937   170A      1.353581  
     171A      1.367915   172A      1.383405   173A      1.393360  
     174A      1.410290   175A      1.419822   176A      1.464619  
     177A      1.467490   178A      1.467998   179A      1.487403  
     180A      1.504109   181A      1.518994   182A      1.537496  
     183A      1.547331   184A      1.564960   185A      1.571146  
     186A      1.574427   187A      1.614234   188A      1.618273  
     189A      1.628710   190A      1.644808   191A      1.654635  
     192A      1.660889   193A      1.677842   194A      1.687244  
     195A      1.694694   196A      1.714655   197A      1.715214  
     198A      1.721104   199A      1.734347   200A      1.740128  
     201A      1.760102   202A      1.760849   203A      1.772218  
     204A      1.783558   205A      1.785818   206A      1.789193  
     207A      1.803251   208A      1.809170   209A      1.831143  
     210A      1.852125   211A      1.853183   212A      1.872854  
     213A      1.892717   214A      1.905040   215A      1.915632  
     216A      1.922179   217A      1.950100   218A      1.961133  
     219A      1.989767   220A      1.995720   221A      2.008287  
     222A      2.016164   223A      2.020669   224A      2.034841  
     225A      2.054911   226A      2.058918   227A      2.081142  
     228A      2.106950   229A      2.119380   230A      2.133697  
     231A      2.165172   232A      2.195540   233A      2.215350  
     234A      2.216256   235A      2.239304   236A      2.250740  
     237A      2.259158   238A      2.278822   239A      2.288183  
     240A      2.289928   241A      2.329474   242A      2.331936  
     243A      2.349957   244A      2.366708   245A      2.380978  
     246A      2.388746   247A      2.423891   248A      2.464383  
     249A      2.470759   250A      2.487399   251A      2.496490  
     252A      2.529164   253A      2.589743   254A      2.616824  
     255A      2.627841   256A      2.637239   257A      2.790530  
     258A      2.878870   259A      2.940910   260A      3.013824  
     261A      3.253501   262A      3.267006   263A      3.279717  
     264A      3.371078   265A      3.374473   266A      3.423243  
     267A      3.429445   268A      3.453720   269A      3.460305  
     270A      3.500960   271A      3.512763   272A      3.543361  
     273A      3.568816   274A      3.572205   275A      3.620951  
     276A      3.623859   277A      3.630446   278A      3.662551  
     279A      3.675550   280A      3.690429   281A      3.701430  
     282A      3.707808   283A      3.710389   284A      3.732111  
     285A      3.747375   286A      3.776760   287A      3.781038  
     288A      3.792254   289A      3.825211   290A      3.826100  
     291A      3.833665   292A      3.851260   293A      3.864745  
     294A      3.895100   295A      3.905973   296A      3.929599  
     297A      3.948036   298A      3.969698   299A      3.975727  
     300A      4.010021   301A      4.013757   302A      4.019179  
     303A      4.031527   304A      4.033880   305A      4.048056  
     306A      4.069880   307A      4.085349   308A      4.095089  
     309A      4.113812   310A      4.187200   311A      4.201932  
     312A      4.208375   313A      4.234730   314A      4.235537  
     315A      4.266451   316A      4.269842   317A      4.283564  
     318A      4.287596   319A      4.313078   320A      4.320013  
     321A      4.345314   322A      4.365478   323A      4.377133  
     324A      4.413598   325A      4.430691   326A      4.433866  
     327A      4.523930   328A      4.567038   329A      4.572375  
     330A      4.589838   331A      4.641284   332A      4.656215  
     333A      4.694707   334A      4.700103   335A      4.710969  
     336A      4.744155   337A      4.747240   338A      4.758457  
     339A      4.779755   340A      4.802489   341A      4.825328  
     342A      4.859208   343A      4.872193   344A      4.882944  
     345A      4.888006   346A      4.906637   347A      4.925638  
     348A      4.963810   349A      4.987202   350A      5.015367  
     351A      5.034763   352A      5.038102   353A      5.084932  
     354A      5.103304   355A      5.126829   356A      5.137425  
     357A      5.194111   358A      5.201994   359A      5.208050  
     360A      5.219122   361A      5.249761   362A      5.256405  
     363A      5.262392   364A      5.300187   365A      5.324027  
     366A      5.382518   367A      5.402663   368A      5.417209  
     369A      5.424942   370A      5.433510   371A      5.463718  
     372A      5.494602   373A      5.506411   374A      5.520775  
     375A      5.523288   376A      5.608270   377A      5.613751  
     378A      5.632328   379A      5.678784   380A      5.697014  
     381A      5.714997   382A      5.736380   383A      5.784899  
     384A      5.825359   385A      5.868798   386A      5.906908  
     387A      5.909988   388A      5.937749   389A      5.954017  
     390A      6.035939   391A      6.119530   392A      6.134979  
     393A      6.158071   394A      6.186947   395A      6.256606  
     396A      6.274831   397A      6.289708   398A      6.297276  
     399A      6.323071   400A      6.340697   401A      6.416232  
     402A      6.451443   403A      6.539457   404A      6.585924  
     405A      6.746094   406A      6.773486   407A      6.815451  
     408A      6.839809   409A      6.870823   410A      7.005349  
     411A     18.276394   412A     18.280852   413A     18.738318  
     414A     18.931814  

    Final Occupation by Irrep:
              A 
    DOCC [    17 ]

  Energy converged.

  @DF-RHF Final Energy:  -157.35129184367207

   => Energetics <=

    Nuclear Repulsion Energy =            131.9127360833786611
    One-Electron Energy =                -471.9195924444907178
    Two-Electron Energy =                 182.6555645174399842
    DFT Exchange-Correlation Energy =       0.0000000000000000
    Empirical Dispersion Energy =           0.0000000000000000
    PCM Polarization Energy =               0.0000000000000000
    EFP Energy =                            0.0000000000000000
    Total Energy =                       -157.3512918436720724



Properties will be evaluated at   0.000000,   0.000000,   0.000000 Bohr

Properties computed using the SCF density matrix

  Nuclear Dipole Moment: (a.u.)
     X:     0.0806      Y:     0.0422      Z:    -0.1743

  Electronic Dipole Moment: (a.u.)
     X:    -0.0866      Y:    -0.0460      Z:     0.1880

  Dipole Moment: (a.u.)
     X:    -0.0060      Y:    -0.0038      Z:     0.0137     Total:     0.0154

  Dipole Moment: (Debye)
     X:    -0.0153      Y:    -0.0097      Z:     0.0348     Total:     0.0392


*** tstop() called on cpu-6-2.local at Wed Jun 14 14:24:47 2017
Module time:
	user time   =      72.34 seconds =       1.21 minutes
	system time =       0.55 seconds =       0.01 minutes
	total time  =         73 seconds =       1.22 minutes
Total time:
	user time   =      72.35 seconds =       1.21 minutes
	system time =       0.55 seconds =       0.01 minutes
	total time  =         73 seconds =       1.22 minutes

  //>>>>>>>>>>>>>>>>>>>>>>>>>>>>>>>>>>>//
  //               DFMP2               //
  //<<<<<<<<<<<<<<<<<<<<<<<<<<<<<<<<<<<//

   => Loading Basis Set <=

    Name: (AUG-CC-PVTZ AUX)
    Role: RIFIT
    Keyword: DF_BASIS_MP2
    atoms 1-3, 5-6, 8-9, 11-13 entry H          line    29 file /cbio/jclab/home/chayas/anaconda/envs/py35/share/psi4/basis/aug-cc-pvtz-ri.gbs 
    atoms 4, 7, 10, 14         entry C          line   147 file /cbio/jclab/home/chayas/anaconda/envs/py35/share/psi4/basis/aug-cc-pvtz-ri.gbs 

	 --------------------------------------------------------
	                          DF-MP2                         
	      2nd-Order Density-Fitted Moller-Plesset Theory     
	              RMP2 Wavefunction,   1 Threads             
	                                                         
	        Rob Parrish, Justin Turney, Andy Simmonett,      
	           Ed Hohenstein, and C. David Sherrill          
	 --------------------------------------------------------

   => Auxiliary Basis Set <=

  Basis Set: (AUG-CC-PVTZ AUX)
    Blend: AUG-CC-PVTZ-RI
    Number of shells: 252
    Number of basis function: 884
    Number of Cartesian functions: 1094
    Spherical Harmonics?: true
    Max angular momentum: 4

	 --------------------------------------------------------
	                 NBF =   414, NAUX =   884
	 --------------------------------------------------------
	   CLASS    FOCC     OCC    AOCC    AVIR     VIR    FVIR
	   PAIRS       0      17      17     397     397       0
	 --------------------------------------------------------


         ------------------------------------------------------------
                                     CPHF                           
                                  Rob Parrish                       
         ------------------------------------------------------------

  ==> Geometry <==

    Molecular point group: c1
    Full point group: C1

    Geometry (in Angstrom), charge = 0, multiplicity = 1:

       Center              X                  Y                   Z               Mass       
    ------------   -----------------  -----------------  -----------------  -----------------
           H         -2.345304699741     0.077804267924    -0.310095601521     1.007825032070
           H         -2.021304699741     1.763804267924    -0.638095601521     1.007825032070
           H         -1.399304699741     0.530804267924    -1.707095601521     1.007825032070
           C         -1.624304699741     0.770804267924    -0.690095601521    12.000000000000
           H          0.382695300259     1.379804267924    -0.227095601521     1.007825032070
           H         -0.562304699741     0.927804267924     1.171904398479     1.007825032070
           C         -0.338304699741     0.686804267924     0.153904398479    12.000000000000
           H         -0.304304699741    -1.376195732076     0.750904398479     1.007825032070
           H          0.134695300259    -1.113195732076    -0.919095601521     1.007825032070
           C          0.233695300259    -0.741195732076     0.078904398479    12.000000000000
           H          2.118695300259    -1.712195732076     0.420904398479     1.007825032070
           H          1.821695300259    -0.348195732076     1.470904398479     1.007825032070
           H          2.260695300259    -0.085195732076    -0.199095601521     1.007825032070
           C          1.721695300259    -0.720195732076     0.472904398479    12.000000000000

  Nuclear repulsion =  131.912736083378661
  Reference energy  = -157.351291843672072

  ==> Basis Set <==

  Basis Set: AUG-CC-PVTZ
    Blend: AUG-CC-PVTZ
    Number of shells: 146
    Number of basis function: 414
    Number of Cartesian functions: 470
    Spherical Harmonics?: true
    Max angular momentum: 3

  ==> CGRSolver (by Rob Parrish) <==

   Number of roots    =         1
   Preconditioning    =    JACOBI
   Convergence cutoff =     1E-06
   Maximum iterations =       100

  ==> CPHFRHamiltonian (by Rob Parrish) <== 

  ==> DFJK: Density-Fitted J/K Matrices <==

    J tasked:                  Yes
    K tasked:                  Yes
    wK tasked:                  No
    OpenMP threads:              1
    Integrals threads:           1
    Memory (MB):               715
    Algorithm:                Core
    Integral Cache:           NONE
    Schwarz Cutoff:          1E-12
    Fitting Condition:       1E-12

   => Auxiliary Basis Set <=

  Basis Set: (AUG-CC-PVTZ AUX)
    Blend: AUG-CC-PVTZ-JKFIT
    Number of shells: 260
    Number of basis function: 876
    Number of Cartesian functions: 1074
    Spherical Harmonics?: true
    Max angular momentum: 4

  ==> CPHF Iterations <==

  => Iterations <=

             Iter  Converged  Remaining    Residual
  CGR           1          0          1   8.172E-02
  CGR           2          0          1   1.309E-02
  CGR           3          0          1   3.410E-03
  CGR           4          0          1   8.137E-04
  CGR           5          0          1   1.254E-04
  CGR           6          0          1   2.566E-05
  CGR           7          0          1   5.476E-06
  CGR           8          0          1   1.184E-06
  CGR           9          1          0   1.907E-07

    CGRSolver converged.

  ==> DFCorrGrad: Density-Fitted Correlated Gradients <==

    OpenMP threads:              1
    Integrals threads:           1
    Memory (MB):               715
    Schwarz Cutoff:          0E+00
    Fitting Condition:       1E-12

   => Auxiliary Basis Set <=

  Basis Set: (AUG-CC-PVTZ AUX)
    Blend: AUG-CC-PVTZ-JKFIT
    Number of shells: 260
    Number of basis function: 876
    Number of Cartesian functions: 1074
    Spherical Harmonics?: true
    Max angular momentum: 4

	-----------------------------------------------------------
	 ==================> DF-MP2 Energies <==================== 
	-----------------------------------------------------------
	 Reference Energy          =    -157.3512918436720724 [Eh]
	 Singles Energy            =      -0.0000000000000001 [Eh]
	 Same-Spin Energy          =      -0.1654113478365838 [Eh]
	 Opposite-Spin Energy      =      -0.6389813104126003 [Eh]
	 Correlation Energy        =      -0.8043926582491842 [Eh]
	 Total Energy              =    -158.1556845019212574 [Eh]
	-----------------------------------------------------------
	 ================> DF-SCS-MP2 Energies <================== 
	-----------------------------------------------------------
	 SCS Same-Spin Scale       =       0.3333333333333333 [-]
	 SCS Opposite-Spin Scale   =       1.2000000000000000 [-]
	 SCS Same-Spin Energy      =      -0.0551371159455279 [Eh]
	 SCS Opposite-Spin Energy  =      -0.7667775724951204 [Eh]
	 SCS Correlation Energy    =      -0.8219146884406483 [Eh]
	 SCS Total Energy          =    -158.1732065321127152 [Eh]
	-----------------------------------------------------------


  -Total Gradient:
     Atom            X                  Y                   Z
    ------   -----------------  -----------------  -----------------
       1        0.009620333984     0.007345246756    -0.002393661593
       2        0.007830702678    -0.009645779442     0.001692139034
       3       -0.000842111811     0.002615717729     0.012188038067
       4       -0.020388695987    -0.005191626860    -0.017739045977
       5       -0.008803205039    -0.008741189951     0.002749219854
       6        0.000107833547    -0.004974738829    -0.012138652412
       7        0.017809546062     0.027227029420     0.020088736002
       8        0.007926000979     0.009104017164    -0.005500137725
       9        0.002490455047     0.005545989130     0.011541043537
      10       -0.021485121213    -0.029490448895    -0.011313727383
      11       -0.008418829111     0.010102432456    -0.000962621956
      12       -0.003417299450    -0.004206310966    -0.011124785970
      13       -0.007241860682    -0.006426882608     0.006347797798
      14        0.024812250993     0.006736544893     0.006565658725


*** tstop() called on cpu-6-2.local at Wed Jun 14 14:28:59 2017
Module time:
	user time   =     320.89 seconds =       5.35 minutes
	system time =       3.53 seconds =       0.06 minutes
	total time  =        325 seconds =       5.42 minutes
Total time:
	user time   =     320.90 seconds =       5.35 minutes
	system time =       3.53 seconds =       0.06 minutes
	total time  =        325 seconds =       5.42 minutes

			-----------------------------------------
			 OPTKING 2.0: for geometry optimizations 
			  - R.A. King,  Bethel University        
			-----------------------------------------

	Internal coordinates to be generated automatically.
	Detected frag 1 with atoms:  1 2 3 4 5 6 7 8 9 10 11 12 13 14
	---Fragment 1 Bond Connectivity---
	 1 : 4
	 2 : 4
	 3 : 4
	 4 : 1 2 3 7
	 5 : 7
	 6 : 7
	 7 : 4 5 6 10
	 8 : 10
	 9 : 10
	 10 : 7 8 9 14
	 11 : 14
	 12 : 14
	 13 : 14
	 14 : 10 11 12 13

	Assuming in current code that numbering for constraints corresponds to unified fragment.
	Fixed dihedral atom list: 
	    14    10     7     4
	---Fragment 1 Geometry and Gradient---
	 H          -4.4319835807        0.1470287583       -0.5859957619
	 H          -3.8197123136        3.3331070184       -1.2058259335
	 H          -2.6443026590        1.0030746965       -3.2259431695
	 C          -3.0694910389        1.4566089684       -1.3040916924
	 H           0.7231893098        2.6074521834       -0.4291484929
	 H          -1.0626018857        1.7532959713        2.2145783670
	 C          -0.6393032320        1.2978719733        0.2908371638
	 H          -0.5750525435       -2.6006330389        1.4190036651
	 H           0.2545372289       -2.1036350659       -1.7368389768
	 C           0.4416201160       -1.4006569445        0.1491077038
	 H           4.0037538765       -3.2355810195        0.7953940413
	 H           3.4425052151       -0.6579945743        2.7796064808
	 H           4.2720949874       -0.1609966013       -0.3762361611
	 C           3.2535326018       -1.3609726957        0.8936598002
	             0.0096203340        0.0073452468       -0.0023936616
	             0.0078307027       -0.0096457794        0.0016921390
	            -0.0008421118        0.0026157177        0.0121880381
	            -0.0203886960       -0.0051916269       -0.0177390460
	            -0.0088032050       -0.0087411900        0.0027492199
	             0.0001078335       -0.0049747388       -0.0121386524
	             0.0178095461        0.0272270294        0.0200887360
	             0.0079260010        0.0091040172       -0.0055001377
	             0.0024904550        0.0055459891        0.0115410435
	            -0.0214851212       -0.0294904489       -0.0113137274
	            -0.0084188291        0.0101024325       -0.0009626220
	            -0.0034172994       -0.0042063110       -0.0111247860
	            -0.0072418607       -0.0064268826        0.0063477978
	             0.0248122510        0.0067365449        0.0065656587

	Previous optimization step data not found.  Starting new optimization.

	---Fragment 1 Intrafragment Coordinates---
	 - Coordinate -           - BOHR/RAD -       - ANG/DEG -
	 R(1,4)           =         2.021645	       1.069808
	 R(2,4)           =         2.023298	       1.070683
	 R(3,4)           =         2.019899	       1.068884
	 R(4,7)           =         2.911152	       1.540515
	 R(5,7)           =         2.022317	       1.070164
	 R(6,7)           =         2.021725	       1.069851
	 R(7,10)          =         2.910419	       1.540128
	 R(8,10)          =         2.021436	       1.069698
	 R(9,10)          =         2.021379	       1.069668
	 R(10,14)         =         2.909087	       1.539422
	 R(11,14)         =         2.021545	       1.069756
	 R(12,14)         =         2.021555	       1.069761
	 R(13,14)         =         2.022387	       1.070201
	 B(1,4,2)         =         1.910951	     109.489444
	 B(1,4,3)         =         1.911744	     109.534891
	 B(1,4,7)         =         1.909939	     109.431470
	 B(2,4,3)         =         1.909753	     109.420793
	 B(2,4,7)         =         1.910804	     109.480976
	 B(3,4,7)         =         1.910608	     109.469756
	 B(4,7,5)         =         1.909279	     109.393653
	 B(4,7,6)         =         1.911605	     109.526909
	 B(4,7,10)        =         1.911250	     109.506585
	 B(5,7,6)         =         1.911291	     109.508930
	 B(5,7,10)        =         1.910132	     109.442487
	 B(6,7,10)        =         1.910241	     109.448737
	 B(7,10,8)        =         1.910303	     109.452301
	 B(7,10,9)        =         1.910824	     109.482155
	 B(7,10,14)       =         1.911213	     109.504437
	 B(8,10,9)        =         1.910417	     109.458846
	 B(8,10,14)       =         1.910766	     109.478806
	 B(9,10,14)       =         1.910276	     109.450772
	 B(10,14,11)      =         1.910943	     109.488965
	 B(10,14,12)      =         1.911204	     109.503926
	 B(10,14,13)      =         1.911557	     109.524173
	 B(11,14,12)      =         1.910410	     109.458432
	 B(11,14,13)      =         1.910054	     109.438058
	 B(12,14,13)      =         1.909629	     109.413709
	 D(1,4,7,5)       =         3.140986	     179.965241
	 D(1,4,7,6)       =        -1.047233	     -60.002024
	 D(1,4,7,10)      =         1.047656	      60.026270
	 D(2,4,7,5)       =        -1.047735	     -60.030811
	 D(2,4,7,6)       =         1.047231	      60.001924
	 D(2,4,7,10)      =        -3.141065	    -179.969782
	 D(3,4,7,5)       =         1.045671	      59.912509
	 D(3,4,7,6)       =         3.140637	     179.945244
	 D(3,4,7,10)      =        -1.047659	     -60.026463
	 D(4,7,10,8)      =        -1.396073	     -79.989078
	 D(4,7,10,9)      =         0.697972	      39.990876
	 D(4,7,10,14)     =         2.792403	     159.992880
	 D(5,7,10,8)      =         2.794305	     160.101857
	 D(5,7,10,9)      =        -1.394836	     -79.918188
	 D(5,7,10,14)     =         0.699595	      40.083816
	 D(6,7,10,8)      =         0.699651	      40.087029
	 D(6,7,10,9)      =         2.793696	     160.066984
	 D(6,7,10,14)     =        -1.395059	     -79.931013
	 D(7,10,14,11)    =         3.141408	     179.989448
	 D(7,10,14,12)    =         1.046747	      59.974196
	 D(7,10,14,13)    =        -1.047335	     -60.007849
	 D(8,10,14,11)    =         1.046982	      59.987626
	 D(8,10,14,12)    =        -1.047680	     -60.027626
	 D(8,10,14,13)    =         3.141424	     179.990329
	 D(9,10,14,11)    =        -1.047012	     -59.989345
	 D(9,10,14,12)    =         3.141512	     179.995403
	 D(9,10,14,13)    =         1.047431	      60.013359

	Current energy   :      -158.1556845019

	Generating empirical Hessian (Schlegel '84) for each fragment.
	Adding user-defined constraint: Fragment 1; Coordinate 49:
		Value =     2.792403; Fixed value    =     2.792527
		Force =     0.000062; Force constant =     0.500000
	Removing off-diagonal coupling between coordinate 49 and others.
	Taking RFO optimization step.
	Going to follow RFO solution 1.
	Using RFO vector 1.

	Determining step-restricting scale parameter for RS-RFO.
	Maximum step size allowed    0.10000

	 Iter      |step|        alpha        rfo_root  
	------------------------------------------------
	    0     0.19933       1.00000           1
	    1     0.15850       4.59804           1
	    2     0.12582      14.22928           1
	    3     0.10738      26.71465           1
	    4     0.10085      33.50959           1
	    5     0.10001      34.49929           1
	    6     0.10000      34.51510           1
	------------------------------------------------
	Norm of target step-size    0.10000
	Projected energy change by RFO approximation:        -0.0045269825

	Back-transformation to cartesian coordinates...
	Successfully converged to displaced geometry.

	--- Internal Coordinate Step in ANG or DEG, aJ/ANG or AJ/DEG ---
	 ---------------------------------------------------------------------------
	   Coordinate                Previous        Force       Change         New 
	   ----------                --------       ------       ------       ------
	    1 R(1,4)          =      1.069808     0.099623     0.012278     1.082086
	    2 R(2,4)          =      1.070683     0.096948     0.011973     1.082656
	    3 R(3,4)          =      1.068884     0.101839     0.012523     1.081407
	    4 R(4,7)          =      1.540515    -0.052027    -0.007711     1.532804
	    5 R(5,7)          =      1.070164     0.103563     0.012774     1.082938
	    6 R(6,7)          =      1.069851     0.104579     0.012890     1.082741
	    7 R(7,10)         =      1.540128    -0.051421    -0.007615     1.532512
	    8 R(8,10)         =      1.069698     0.105835     0.013040     1.082737
	    9 R(9,10)         =      1.069668     0.106502     0.013121     1.082789
	   10 R(10,14)        =      1.539422    -0.048104    -0.007114     1.532309
	   11 R(11,14)        =      1.069756     0.102536     0.012635     1.082391
	   12 R(12,14)        =      1.069761     0.100188     0.012346     1.082107
	   13 R(13,14)        =      1.070201     0.094305     0.011633     1.081834
	   14 B(1,4,2)        =    109.489444    -0.000263    -0.627312   108.862132
	   15 B(1,4,3)        =    109.534891    -0.000169    -0.461365   109.073526
	   16 B(1,4,7)        =    109.431470     0.000158     0.374036   109.805506
	   17 B(2,4,3)        =    109.420793    -0.000226    -0.538662   108.882131
	   18 B(2,4,7)        =    109.480976     0.000419     1.049020   110.529996
	   19 B(3,4,7)        =    109.469756     0.000081     0.188870   109.658625
	   20 B(4,7,5)        =    109.393653    -0.000119    -0.191885   109.201768
	   21 B(4,7,6)        =    109.526909    -0.000160    -0.222793   109.304117
	   22 B(4,7,10)       =    109.506585     0.000647     1.416862   110.923447
	   23 B(5,7,6)        =    109.508930    -0.000002    -0.291401   109.217529
	   24 B(5,7,10)       =    109.442487    -0.000190    -0.377950   109.064537
	   25 B(6,7,10)       =    109.448737    -0.000176    -0.343217   109.105520
	   26 B(7,10,8)       =    109.452301    -0.000181    -0.353354   109.098946
	   27 B(7,10,9)       =    109.482155    -0.000194    -0.388644   109.093512
	   28 B(7,10,14)      =    109.504437     0.000653     1.428912   110.933349
	   29 B(8,10,9)       =    109.458846     0.000002    -0.280334   109.178512
	   30 B(8,10,14)      =    109.478806    -0.000157    -0.210362   109.268444
	   31 B(9,10,14)      =    109.450772    -0.000125    -0.207490   109.243282
	   32 B(10,14,11)     =    109.488965     0.000424     1.060121   110.549086
	   33 B(10,14,12)     =    109.503926     0.000143     0.338125   109.842051
	   34 B(10,14,13)     =    109.524173     0.000075     0.172169   109.696342
	   35 B(11,14,12)     =    109.458432    -0.000258    -0.613839   108.844593
	   36 B(11,14,13)     =    109.438058    -0.000229    -0.546439   108.891619
	   37 B(12,14,13)     =    109.413709    -0.000156    -0.427781   108.985929
	   38 D(1,4,7,5)      =    179.965241     0.000011     0.139158   180.104399
	   39 D(1,4,7,6)      =    -60.002024    -0.000029    -0.467437   -60.469461
	   40 D(1,4,7,10)     =     60.026270    -0.000010    -0.150271    59.875999
	   41 D(2,4,7,5)      =    -60.030811     0.000018     0.253281   -59.777530
	   42 D(2,4,7,6)      =     60.001924    -0.000022    -0.353313    59.648611
	   43 D(2,4,7,10)     =   -179.969782    -0.000003    -0.036148  -180.005930
	   44 D(3,4,7,5)      =     59.912509     0.000025     0.358757    60.271266
	   45 D(3,4,7,6)      =    179.945244    -0.000015    -0.247837   179.697406
	   46 D(3,4,7,10)     =    -60.026463     0.000004     0.069328   -59.957135
	   47 D(4,7,10,8)     =    -79.989078     0.000037     0.549926   -79.439152
	   48 D(4,7,10,9)     =     39.990876    -0.000015    -0.237402    39.753474
	   49 D(4,7,10,14)    =    159.992880     0.000015     0.146921   160.139801
	   50 D(5,7,10,8)     =    160.101857     0.000007     0.149015   160.250873
	   51 D(5,7,10,9)     =    -79.918188    -0.000045    -0.638313   -80.556501
	   52 D(5,7,10,14)    =     40.083816    -0.000016    -0.253990    39.829826
	   53 D(6,7,10,8)     =     40.087029     0.000058     0.937167    41.024196
	   54 D(6,7,10,9)     =    160.066984     0.000007     0.149838   160.216822
	   55 D(6,7,10,14)    =    -79.931013     0.000036     0.534162   -79.396851
	   56 D(7,10,14,11)   =    179.989448    -0.000002    -0.026675   179.962773
	   57 D(7,10,14,12)   =     59.974196    -0.000009    -0.143293    59.830903
	   58 D(7,10,14,13)   =    -60.007849     0.000004     0.067352   -59.940497
	   59 D(8,10,14,11)   =     59.987626    -0.000021    -0.345268    59.642358
	   60 D(8,10,14,12)   =    -60.027626    -0.000028    -0.461886   -60.489512
	   61 D(8,10,14,13)   =    179.990329    -0.000015    -0.251241   179.739088
	   62 D(9,10,14,11)   =    -59.989345     0.000018     0.249498   -59.739846
	   63 D(9,10,14,12)   =    179.995403     0.000011     0.132880   180.128284
	   64 D(9,10,14,13)   =     60.013359     0.000024     0.343525    60.356884
	 ---------------------------------------------------------------------------
	Successfully symmetrized geometry.
	 Forces used to impose fixed constraints are not included.
	  Forces zeroed: 49 

  ==> Convergence Check <==

  Measures of convergence in internal coordinates in au.
  Criteria marked as inactive (o), active & met (*), and active & unmet ( ).
  --------------------------------------------------------------------------------------------- ~
   Step     Total Energy     Delta E     MAX Force     RMS Force      MAX Disp      RMS Disp    ~
  --------------------------------------------------------------------------------------------- ~
    Convergence Criteria    1.00e-06 *    3.00e-04 *             o    1.20e-03 *             o  ~
  --------------------------------------------------------------------------------------------- ~
      1    -158.15568450   -1.58e+02      1.29e-02      5.57e-03 o    2.49e-02      1.25e-02 o  ~
  ---------------------------------------------------------------------------------------------

	Writing optimization data to binary file.
	Structure for next step:
	Cartesian Geometry (in Angstrom)
	    H    -2.3638432527   0.0613852162  -0.3150701979
	    H    -2.0498654853   1.7621336688  -0.6458543463
	    H    -1.4114174991   0.5248764017  -1.7233298188
	    C    -1.6325817873   0.7641998034  -0.6921887535
	    H     0.3732486594   1.3862852152  -0.2407598636
	    H    -0.5773848030   0.9240496275   1.1733170957
	    C    -0.3505174374   0.6783015189   0.1435276114
	    H    -0.2959756464  -1.3758800931   0.7633101519
	    H     0.1521033849  -1.1147386902  -0.9237173237
	    C     0.2479388641  -0.7312881400   0.0843563576
	    H     2.1443479164  -1.7128884045   0.4364522547
	    H     1.8350640851  -0.3347990441   1.4873463599
	    H     2.2793493889  -0.0757745942  -0.1974541085
	    C     1.7282678161  -0.7146027348   0.4797261597
			--------------------------
			 OPTKING Finished Execution 
			--------------------------

    Structure for next step:
    Molecular point group: c1
    Full point group: C1

    Geometry (in Angstrom), charge = 0, multiplicity = 1:

    H           -2.363905001169     0.061310763955    -0.315033060529
    H           -2.049927233806     1.762059216579    -0.645817208976
    H           -1.411479247590     0.524801949506    -1.723292681440
    C           -1.632643535804     0.764125351115    -0.692151616175
    H            0.373186910864     1.386210762919    -0.240722726278
    H           -0.577446551496     0.923975175299     1.173354233057
    C           -0.350579185941     0.678227066687     0.143564748675
    H           -0.296037394935    -1.375954545383     0.763347289227
    H            0.152041636432    -1.114813142485    -0.923680186352
    C            0.247877115561    -0.731362592227     0.084393494960
    H            2.144286167865    -1.712962856704     0.436489391989
    H            1.835002336591    -0.334873496301     1.487383497221
    H            2.279287640372    -0.075849046410    -0.197416971142
    C            1.728206067572    -0.714677187016     0.479763297005

gradient() will perform analytic gradient computation.

*** tstart() called on cpu-6-2.local
*** at Wed Jun 14 14:28:59 2017

    SCF Algorithm Type (re)set to DF.

*** tstart() called on cpu-6-2.local
*** at Wed Jun 14 14:28:59 2017

   => Loading Basis Set <=

    Name: AUG-CC-PVTZ
    Role: ORBITAL
    Keyword: BASIS
    atoms 1-3, 5-6, 8-9, 11-13 entry H          line    34 file /cbio/jclab/home/chayas/anaconda/envs/py35/share/psi4/basis/aug-cc-pvtz.gbs 
    atoms 4, 7, 10, 14         entry C          line   221 file /cbio/jclab/home/chayas/anaconda/envs/py35/share/psi4/basis/aug-cc-pvtz.gbs 


         ---------------------------------------------------------
                                   SCF
            by Justin Turney, Rob Parrish, and Andy Simmonett
                              RHF Reference
                        1 Threads,    953 MiB Core
         ---------------------------------------------------------

  ==> Geometry <==

    Molecular point group: c1
    Full point group: C1

    Geometry (in Angstrom), charge = 0, multiplicity = 1:

       Center              X                  Y                   Z               Mass       
    ------------   -----------------  -----------------  -----------------  -----------------
           H         -2.363905001169     0.061310763955    -0.315033060529     1.007825032070
           H         -2.049927233806     1.762059216579    -0.645817208976     1.007825032070
           H         -1.411479247590     0.524801949506    -1.723292681440     1.007825032070
           C         -1.632643535804     0.764125351115    -0.692151616175    12.000000000000
           H          0.373186910864     1.386210762919    -0.240722726278     1.007825032070
           H         -0.577446551496     0.923975175299     1.173354233057     1.007825032070
           C         -0.350579185941     0.678227066687     0.143564748675    12.000000000000
           H         -0.296037394935    -1.375954545383     0.763347289227     1.007825032070
           H          0.152041636432    -1.114813142485    -0.923680186352     1.007825032070
           C          0.247877115561    -0.731362592227     0.084393494960    12.000000000000
           H          2.144286167865    -1.712962856704     0.436489391989     1.007825032070
           H          1.835002336591    -0.334873496301     1.487383497221     1.007825032070
           H          2.279287640372    -0.075849046410    -0.197416971142     1.007825032070
           C          1.728206067572    -0.714677187016     0.479763297005    12.000000000000

  Running in c1 symmetry.

  Rotational constants: A =      0.74854  B =      0.12424  C =      0.11724 [cm^-1]
  Rotational constants: A =  22440.68533  B =   3724.73231  C =   3514.78801 [MHz]
  Nuclear repulsion =  131.487681946171250

  Charge       = 0
  Multiplicity = 1
  Electrons    = 34
  Nalpha       = 17
  Nbeta        = 17

  ==> Algorithm <==

  SCF Algorithm Type is DF.
  DIIS enabled.
  MOM disabled.
  Fractional occupation disabled.
  Guess Type is READ.
  Energy threshold   = 1.00e-10
  Density threshold  = 1.00e-10
  Integral threshold = 0.00e+00

  ==> Primary Basis <==

  Basis Set: AUG-CC-PVTZ
    Blend: AUG-CC-PVTZ
    Number of shells: 146
    Number of basis function: 414
    Number of Cartesian functions: 470
    Spherical Harmonics?: true
    Max angular momentum: 3

   => Loading Basis Set <=

    Name: (AUG-CC-PVTZ AUX)
    Role: JKFIT
    Keyword: DF_BASIS_SCF
    atoms 1-3, 5-6, 8-9, 11-13 entry H          line    69 file /cbio/jclab/home/chayas/anaconda/envs/py35/share/psi4/basis/aug-cc-pvtz-jkfit.gbs 
    atoms 4, 7, 10, 14         entry C          line   161 file /cbio/jclab/home/chayas/anaconda/envs/py35/share/psi4/basis/aug-cc-pvtz-jkfit.gbs 

  Reading orbitals from file 180, no projection.

  ==> Pre-Iterations <==

   -------------------------------------------------------
    Irrep   Nso     Nmo     Nalpha   Nbeta   Ndocc  Nsocc
   -------------------------------------------------------
     A        414     414       0       0       0       0
   -------------------------------------------------------
    Total     414     414      17      17      17       0
   -------------------------------------------------------

  ==> Integral Setup <==

  ==> DFJK: Density-Fitted J/K Matrices <==

    J tasked:                  Yes
    K tasked:                  Yes
    wK tasked:                  No
    OpenMP threads:              1
    Integrals threads:           1
    Memory (MB):               715
    Algorithm:                Core
    Integral Cache:           NONE
    Schwarz Cutoff:          1E-12
    Fitting Condition:       1E-12

   => Auxiliary Basis Set <=

  Basis Set: (AUG-CC-PVTZ AUX)
    Blend: AUG-CC-PVTZ-JKFIT
    Number of shells: 260
    Number of basis function: 876
    Number of Cartesian functions: 1074
    Spherical Harmonics?: true
    Max angular momentum: 4

  Minimum eigenvalue in the overlap matrix is 8.6399050144E-06.
  Using Symmetric Orthogonalization.

  SCF Guess: Orbitals guess was supplied from a previous computation.

  ==> Iterations <==

                           Total Energy        Delta E     RMS |[F,P]|

   @DF-RHF iter   0:  -157.27453773223226   -1.57275e+02   1.30463e-04 
   @DF-RHF iter   1:  -157.35358421164537   -7.90465e-02   5.43061e-05 
   @DF-RHF iter   2:  -157.35388357744196   -2.99366e-04   2.81352e-05 DIIS
   @DF-RHF iter   3:  -157.35394780866304   -6.42312e-05   3.06809e-06 DIIS
   @DF-RHF iter   4:  -157.35394949787579   -1.68921e-06   8.07969e-07 DIIS
   @DF-RHF iter   5:  -157.35394959525632   -9.73805e-08   2.68168e-07 DIIS
   @DF-RHF iter   6:  -157.35394960613633   -1.08800e-08   4.41368e-08 DIIS
   @DF-RHF iter   7:  -157.35394960658093   -4.44601e-10   7.39383e-09 DIIS
   @DF-RHF iter   8:  -157.35394960659241   -1.14824e-11   1.75506e-09 DIIS
   @DF-RHF iter   9:  -157.35394960659329   -8.81073e-13   4.11164e-10 DIIS
   @DF-RHF iter  10:  -157.35394960659255    7.38964e-13   7.91375e-11 DIIS

  ==> Post-Iterations <==

    Orbital Energies (a.u.)
    -----------------------

    Doubly Occupied:                                                      

       1A    -11.210115     2A    -11.209511     3A    -11.204011  
       4A    -11.203990     5A     -1.070983     6A     -0.980171  
       7A     -0.859956     8A     -0.789119     9A     -0.644208  
      10A     -0.584501    11A     -0.580928    12A     -0.564857  
      13A     -0.512285    14A     -0.501436    15A     -0.468557  
      16A     -0.465295    17A     -0.449003  

    Virtual:                                                              

      18A      0.032259    19A      0.037090    20A      0.039537  
      21A      0.040497    22A      0.056716    23A      0.059264  
      24A      0.059919    25A      0.061369    26A      0.076005  
      27A      0.082380    28A      0.107096    29A      0.114402  
      30A      0.123675    31A      0.129124    32A      0.135176  
      33A      0.139176    34A      0.142580    35A      0.142911  
      36A      0.148341    37A      0.157074    38A      0.158953  
      39A      0.167576    40A      0.171484    41A      0.201220  
      42A      0.209687    43A      0.213382    44A      0.231069  
      45A      0.240600    46A      0.250510    47A      0.258035  
      48A      0.265156    49A      0.279751    50A      0.286106  
      51A      0.289324    52A      0.312998    53A      0.313232  
      54A      0.330301    55A      0.334164    56A      0.342039  
      57A      0.342636    58A      0.353159    59A      0.360565  
      60A      0.360705    61A      0.367820    62A      0.373510  
      63A      0.382705    64A      0.384637    65A      0.388534  
      66A      0.390584    67A      0.395955    68A      0.397818  
      69A      0.410849    70A      0.418736    71A      0.427473  
      72A      0.429748    73A      0.442915    74A      0.443906  
      75A      0.444608    76A      0.455166    77A      0.459607  
      78A      0.474806    79A      0.475109    80A      0.479695  
      81A      0.488353    82A      0.490957    83A      0.496633  
      84A      0.505537    85A      0.506093    86A      0.517964  
      87A      0.527236    88A      0.529957    89A      0.531082  
      90A      0.541198    91A      0.541979    92A      0.564694  
      93A      0.565889    94A      0.575869    95A      0.579051  
      96A      0.592656    97A      0.595896    98A      0.610973  
      99A      0.625809   100A      0.626037   101A      0.642117  
     102A      0.661878   103A      0.678703   104A      0.683940  
     105A      0.684990   106A      0.708123   107A      0.760907  
     108A      0.788532   109A      0.799116   110A      0.809524  
     111A      0.828841   112A      0.832350   113A      0.832490  
     114A      0.834199   115A      0.855971   116A      0.857775  
     117A      0.860989   118A      0.874812   119A      0.882035  
     120A      0.885289   121A      0.894933   122A      0.900443  
     123A      0.903176   124A      0.910299   125A      0.920590  
     126A      0.927747   127A      0.937950   128A      0.940818  
     129A      0.949550   130A      0.955291   131A      0.955524  
     132A      0.980427   133A      0.982796   134A      0.992828  
     135A      0.995922   136A      1.009524   137A      1.019966  
     138A      1.022105   139A      1.036728   140A      1.044858  
     141A      1.062455   142A      1.082752   143A      1.102122  
     144A      1.104876   145A      1.116164   146A      1.123177  
     147A      1.123362   148A      1.133664   149A      1.137012  
     150A      1.153922   151A      1.157386   152A      1.172843  
     153A      1.177736   154A      1.194092   155A      1.194759  
     156A      1.210437   157A      1.216546   158A      1.231931  
     159A      1.237330   160A      1.254067   161A      1.267980  
     162A      1.270676   163A      1.277933   164A      1.281745  
     165A      1.293534   166A      1.309977   167A      1.311433  
     168A      1.337173   169A      1.344876   170A      1.345698  
     171A      1.363453   172A      1.379063   173A      1.389769  
     174A      1.405751   175A      1.415762   176A      1.460155  
     177A      1.462281   178A      1.463585   179A      1.485581  
     180A      1.505367   181A      1.515596   182A      1.536293  
     183A      1.547443   184A      1.564508   185A      1.567950  
     186A      1.575095   187A      1.610637   188A      1.611464  
     189A      1.625154   190A      1.639993   191A      1.649923  
     192A      1.654659   193A      1.676846   194A      1.683118  
     195A      1.692467   196A      1.709924   197A      1.714093  
     198A      1.715734   199A      1.734503   200A      1.738173  
     201A      1.756858   202A      1.759430   203A      1.769339  
     204A      1.782944   205A      1.783309   206A      1.784288  
     207A      1.803198   208A      1.805889   209A      1.825877  
     210A      1.847727   211A      1.848911   212A      1.866565  
     213A      1.889728   214A      1.901146   215A      1.912089  
     216A      1.920057   217A      1.941608   218A      1.954286  
     219A      1.981652   220A      1.989605   221A      1.999476  
     222A      2.008343   223A      2.015704   224A      2.030536  
     225A      2.047487   226A      2.053605   227A      2.076756  
     228A      2.099618   229A      2.114312   230A      2.128019  
     231A      2.162386   232A      2.189650   233A      2.203455  
     234A      2.213691   235A      2.238327   236A      2.240951  
     237A      2.253219   238A      2.274341   239A      2.282211  
     240A      2.282644   241A      2.318253   242A      2.323508  
     243A      2.342223   244A      2.357757   245A      2.365384  
     246A      2.382732   247A      2.420212   248A      2.466631  
     249A      2.468717   250A      2.479746   251A      2.497074  
     252A      2.530209   253A      2.587734   254A      2.612600  
     255A      2.622594   256A      2.635135   257A      2.793639  
     258A      2.886353   259A      2.954658   260A      3.031469  
     261A      3.248790   262A      3.271131   263A      3.281428  
     264A      3.374701   265A      3.384730   266A      3.426359  
     267A      3.432160   268A      3.452418   269A      3.464381  
     270A      3.499844   271A      3.506624   272A      3.538634  
     273A      3.570710   274A      3.576988   275A      3.620098  
     276A      3.626732   277A      3.630335   278A      3.655532  
     279A      3.668395   280A      3.684631   281A      3.692892  
     282A      3.709427   283A      3.714284   284A      3.730277  
     285A      3.750609   286A      3.777022   287A      3.779199  
     288A      3.794064   289A      3.821068   290A      3.822251  
     291A      3.834298   292A      3.852611   293A      3.867389  
     294A      3.894071   295A      3.901449   296A      3.922880  
     297A      3.945714   298A      3.966501   299A      3.967806  
     300A      3.998314   301A      3.999133   302A      4.014112  
     303A      4.016759   304A      4.026518   305A      4.037052  
     306A      4.057682   307A      4.071219   308A      4.096636  
     309A      4.108163   310A      4.181713   311A      4.193887  
     312A      4.198740   313A      4.221437   314A      4.228195  
     315A      4.256232   316A      4.257088   317A      4.269254  
     318A      4.281117   319A      4.296341   320A      4.309733  
     321A      4.335318   322A      4.353049   323A      4.362335  
     324A      4.401118   325A      4.417219   326A      4.420989  
     327A      4.509325   328A      4.550795   329A      4.556880  
     330A      4.574681   331A      4.623841   332A      4.642573  
     333A      4.674961   334A      4.681186   335A      4.690612  
     336A      4.723905   337A      4.728950   338A      4.743656  
     339A      4.761180   340A      4.790682   341A      4.803638  
     342A      4.840262   343A      4.859513   344A      4.869133  
     345A      4.871560   346A      4.888762   347A      4.908248  
     348A      4.946636   349A      4.961575   350A      5.005322  
     351A      5.016611   352A      5.025845   353A      5.058576  
     354A      5.080575   355A      5.112304   356A      5.120152  
     357A      5.171770   358A      5.184905   359A      5.187934  
     360A      5.201635   361A      5.219639   362A      5.236843  
     363A      5.240798   364A      5.279184   365A      5.304015  
     366A      5.352778   367A      5.386716   368A      5.396767  
     369A      5.397329   370A      5.425287   371A      5.438215  
     372A      5.475922   373A      5.485199   374A      5.490137  
     375A      5.494228   376A      5.579709   377A      5.580595  
     378A      5.600763   379A      5.661299   380A      5.686985  
     381A      5.692030   382A      5.717709   383A      5.747223  
     384A      5.783006   385A      5.842128   386A      5.864158  
     387A      5.876623   388A      5.899780   389A      5.918729  
     390A      6.003686   391A      6.077564   392A      6.086380  
     393A      6.124059   394A      6.149522   395A      6.219840  
     396A      6.232234   397A      6.251961   398A      6.254977  
     399A      6.288483   400A      6.296255   401A      6.360014  
     402A      6.441311   403A      6.532771   404A      6.574212  
     405A      6.732933   406A      6.767181   407A      6.813268  
     408A      6.836808   409A      6.866733   410A      7.005335  
     411A     18.077659   412A     18.086835   413A     18.610947  
     414A     18.866815  

    Final Occupation by Irrep:
              A 
    DOCC [    17 ]

  Energy converged.

  @DF-RHF Final Energy:  -157.35394960659255

   => Energetics <=

    Nuclear Repulsion Energy =            131.4876819461712500
    One-Electron Energy =                -471.0854131993517058
    Two-Electron Energy =                 182.2437816465878768
    DFT Exchange-Correlation Energy =       0.0000000000000000
    Empirical Dispersion Energy =           0.0000000000000000
    PCM Polarization Energy =               0.0000000000000000
    EFP Energy =                            0.0000000000000000
    Total Energy =                       -157.3539496065925505



Properties will be evaluated at   0.000000,   0.000000,   0.000000 Bohr

Properties computed using the SCF density matrix

  Nuclear Dipole Moment: (a.u.)
     X:     0.0797      Y:     0.0412      Z:    -0.1738

  Electronic Dipole Moment: (a.u.)
     X:    -0.0852      Y:    -0.0442      Z:     0.1862

  Dipole Moment: (a.u.)
     X:    -0.0055      Y:    -0.0030      Z:     0.0124     Total:     0.0139

  Dipole Moment: (Debye)
     X:    -0.0141      Y:    -0.0077      Z:     0.0315     Total:     0.0354


*** tstop() called on cpu-6-2.local at Wed Jun 14 14:29:58 2017
Module time:
	user time   =      58.05 seconds =       0.97 minutes
	system time =       0.91 seconds =       0.02 minutes
	total time  =         59 seconds =       0.98 minutes
Total time:
	user time   =     379.00 seconds =       6.32 minutes
	system time =       4.52 seconds =       0.08 minutes
	total time  =        384 seconds =       6.40 minutes

  //>>>>>>>>>>>>>>>>>>>>>>>>>>>>>>>>>>>//
  //               DFMP2               //
  //<<<<<<<<<<<<<<<<<<<<<<<<<<<<<<<<<<<//

   => Loading Basis Set <=

    Name: (AUG-CC-PVTZ AUX)
    Role: RIFIT
    Keyword: DF_BASIS_MP2
    atoms 1-3, 5-6, 8-9, 11-13 entry H          line    29 file /cbio/jclab/home/chayas/anaconda/envs/py35/share/psi4/basis/aug-cc-pvtz-ri.gbs 
    atoms 4, 7, 10, 14         entry C          line   147 file /cbio/jclab/home/chayas/anaconda/envs/py35/share/psi4/basis/aug-cc-pvtz-ri.gbs 

	 --------------------------------------------------------
	                          DF-MP2                         
	      2nd-Order Density-Fitted Moller-Plesset Theory     
	              RMP2 Wavefunction,   1 Threads             
	                                                         
	        Rob Parrish, Justin Turney, Andy Simmonett,      
	           Ed Hohenstein, and C. David Sherrill          
	 --------------------------------------------------------

   => Auxiliary Basis Set <=

  Basis Set: (AUG-CC-PVTZ AUX)
    Blend: AUG-CC-PVTZ-RI
    Number of shells: 252
    Number of basis function: 884
    Number of Cartesian functions: 1094
    Spherical Harmonics?: true
    Max angular momentum: 4

	 --------------------------------------------------------
	                 NBF =   414, NAUX =   884
	 --------------------------------------------------------
	   CLASS    FOCC     OCC    AOCC    AVIR     VIR    FVIR
	   PAIRS       0      17      17     397     397       0
	 --------------------------------------------------------


         ------------------------------------------------------------
                                     CPHF                           
                                  Rob Parrish                       
         ------------------------------------------------------------

  ==> Geometry <==

    Molecular point group: c1
    Full point group: C1

    Geometry (in Angstrom), charge = 0, multiplicity = 1:

       Center              X                  Y                   Z               Mass       
    ------------   -----------------  -----------------  -----------------  -----------------
           H         -2.363905001169     0.061310763955    -0.315033060529     1.007825032070
           H         -2.049927233806     1.762059216579    -0.645817208976     1.007825032070
           H         -1.411479247590     0.524801949506    -1.723292681440     1.007825032070
           C         -1.632643535804     0.764125351115    -0.692151616175    12.000000000000
           H          0.373186910864     1.386210762919    -0.240722726278     1.007825032070
           H         -0.577446551496     0.923975175299     1.173354233057     1.007825032070
           C         -0.350579185941     0.678227066687     0.143564748675    12.000000000000
           H         -0.296037394935    -1.375954545383     0.763347289227     1.007825032070
           H          0.152041636432    -1.114813142485    -0.923680186352     1.007825032070
           C          0.247877115561    -0.731362592227     0.084393494960    12.000000000000
           H          2.144286167865    -1.712962856704     0.436489391989     1.007825032070
           H          1.835002336591    -0.334873496301     1.487383497221     1.007825032070
           H          2.279287640372    -0.075849046410    -0.197416971142     1.007825032070
           C          1.728206067572    -0.714677187016     0.479763297005    12.000000000000

  Nuclear repulsion =  131.487681946171250
  Reference energy  = -157.353949606592550

  ==> Basis Set <==

  Basis Set: AUG-CC-PVTZ
    Blend: AUG-CC-PVTZ
    Number of shells: 146
    Number of basis function: 414
    Number of Cartesian functions: 470
    Spherical Harmonics?: true
    Max angular momentum: 3

  ==> CGRSolver (by Rob Parrish) <==

   Number of roots    =         1
   Preconditioning    =    JACOBI
   Convergence cutoff =     1E-06
   Maximum iterations =       100

  ==> CPHFRHamiltonian (by Rob Parrish) <== 

  ==> DFJK: Density-Fitted J/K Matrices <==

    J tasked:                  Yes
    K tasked:                  Yes
    wK tasked:                  No
    OpenMP threads:              1
    Integrals threads:           1
    Memory (MB):               715
    Algorithm:                Core
    Integral Cache:           NONE
    Schwarz Cutoff:          1E-12
    Fitting Condition:       1E-12

   => Auxiliary Basis Set <=

  Basis Set: (AUG-CC-PVTZ AUX)
    Blend: AUG-CC-PVTZ-JKFIT
    Number of shells: 260
    Number of basis function: 876
    Number of Cartesian functions: 1074
    Spherical Harmonics?: true
    Max angular momentum: 4

  ==> CPHF Iterations <==

  => Iterations <=

             Iter  Converged  Remaining    Residual
  CGR           1          0          1   8.319E-02
  CGR           2          0          1   1.327E-02
  CGR           3          0          1   3.478E-03
  CGR           4          0          1   8.221E-04
  CGR           5          0          1   1.270E-04
  CGR           6          0          1   2.632E-05
  CGR           7          0          1   5.562E-06
  CGR           8          0          1   1.200E-06
  CGR           9          1          0   1.924E-07

    CGRSolver converged.

  ==> DFCorrGrad: Density-Fitted Correlated Gradients <==

    OpenMP threads:              1
    Integrals threads:           1
    Memory (MB):               715
    Schwarz Cutoff:          0E+00
    Fitting Condition:       1E-12

   => Auxiliary Basis Set <=

  Basis Set: (AUG-CC-PVTZ AUX)
    Blend: AUG-CC-PVTZ-JKFIT
    Number of shells: 260
    Number of basis function: 876
    Number of Cartesian functions: 1074
    Spherical Harmonics?: true
    Max angular momentum: 4

	-----------------------------------------------------------
	 ==================> DF-MP2 Energies <==================== 
	-----------------------------------------------------------
	 Reference Energy          =    -157.3539496065925505 [Eh]
	 Singles Energy            =      -0.0000000000000002 [Eh]
	 Same-Spin Energy          =      -0.1653502105829483 [Eh]
	 Opposite-Spin Energy      =      -0.6393929235220275 [Eh]
	 Correlation Energy        =      -0.8047431341049760 [Eh]
	 Total Energy              =    -158.1586927406975178 [Eh]
	-----------------------------------------------------------
	 ================> DF-SCS-MP2 Energies <================== 
	-----------------------------------------------------------
	 SCS Same-Spin Scale       =       0.3333333333333333 [-]
	 SCS Opposite-Spin Scale   =       1.2000000000000000 [-]
	 SCS Same-Spin Energy      =      -0.0551167368609828 [Eh]
	 SCS Opposite-Spin Energy  =      -0.7672715082264330 [Eh]
	 SCS Correlation Energy    =      -0.8223882450874159 [Eh]
	 SCS Total Energy          =    -158.1763378516799605 [Eh]
	-----------------------------------------------------------


  -Total Gradient:
     Atom            X                  Y                   Z
    ------   -----------------  -----------------  -----------------
       1        0.003635193600     0.002277311986     0.000350673985
       2        0.003107396842    -0.002268384348     0.000984347696
       3        0.000791717114     0.000909284630     0.004072229003
       4       -0.010513717664    -0.002638339294    -0.009805264885
       5       -0.002917419582    -0.003775013329    -0.000602499415
       6       -0.001962107530    -0.003619713697    -0.003864646324
       7        0.009815779055     0.014058252829     0.010941913723
       8        0.003534973816     0.004407515550     0.000447779774
       9        0.001729525348     0.003155156775     0.003253418217
      10       -0.011895025035    -0.015210418129    -0.005982811259
      11       -0.003256253340     0.002388954618    -0.000767719348
      12       -0.002229275740    -0.001561999630    -0.003281368134
      13       -0.003135074464    -0.001996456187     0.001413645554
      14        0.013294287583     0.003873848225     0.002840301411


*** tstop() called on cpu-6-2.local at Wed Jun 14 14:34:15 2017
Module time:
	user time   =     311.46 seconds =       5.19 minutes
	system time =       3.94 seconds =       0.07 minutes
	total time  =        316 seconds =       5.27 minutes
Total time:
	user time   =     632.41 seconds =      10.54 minutes
	system time =       7.55 seconds =       0.13 minutes
	total time  =        641 seconds =      10.68 minutes

			-----------------------------------------
			 OPTKING 2.0: for geometry optimizations 
			  - R.A. King,  Bethel University        
			-----------------------------------------

	Previous internal coordinate definitions found.
	---Fragment 1 Geometry and Gradient---
	 H          -4.4671330564        0.1158605529       -0.5953262072
	 H          -3.8738010642        3.3298093493       -1.2204176569
	 H          -2.6673092202        0.9917319586       -3.2565512147
	 C          -3.0852491553        1.4439876448       -1.3079769970
	 H           0.7052210579        2.6195587044       -0.4549000266
	 H          -1.0912158387        1.7460600349        2.2173181573
	 C          -0.6624986493        1.2816634119        0.2712980573
	 H          -0.5594296015       -2.6001772621        1.4425173209
	 H           0.2873170537       -2.1066915286       -1.7455025866
	 C           0.4684198630       -1.3820750031        0.1594805929
	 H           4.0521136078       -3.2370306750        0.8248454108
	 H           3.4676518694       -0.6328191972        2.8107474643
	 H           4.3072294184       -0.1433339252       -0.3730640094
	 C           3.2658361689       -1.3505441569        0.9066212400
	             0.0036351936        0.0022773120        0.0003506740
	             0.0031073968       -0.0022683843        0.0009843477
	             0.0007917171        0.0009092846        0.0040722290
	            -0.0105137177       -0.0026383393       -0.0098052649
	            -0.0029174196       -0.0037750133       -0.0006024994
	            -0.0019621075       -0.0036197137       -0.0038646463
	             0.0098157791        0.0140582528        0.0109419137
	             0.0035349738        0.0044075155        0.0004477798
	             0.0017295253        0.0031551568        0.0032534182
	            -0.0118950250       -0.0152104181       -0.0059828113
	            -0.0032562533        0.0023889546       -0.0007677193
	            -0.0022292757       -0.0015619996       -0.0032813681
	            -0.0031350745       -0.0019964562        0.0014136456
	             0.0132942876        0.0038738482        0.0028403014

	---Fragment 1 Intrafragment Coordinates---
	 - Coordinate -           - BOHR/RAD -       - ANG/DEG -
	 R(1,4)           =         2.044846	       1.082086
	 R(2,4)           =         2.045924	       1.082656
	 R(3,4)           =         2.043563	       1.081407
	 R(4,7)           =         2.896581	       1.532804
	 R(5,7)           =         2.046457	       1.082938
	 R(6,7)           =         2.046083	       1.082741
	 R(7,10)          =         2.896029	       1.532512
	 R(8,10)          =         2.046077	       1.082737
	 R(9,10)          =         2.046174	       1.082789
	 R(10,14)         =         2.895644	       1.532309
	 R(11,14)         =         2.045422	       1.082391
	 R(12,14)         =         2.044885	       1.082107
	 R(13,14)         =         2.044371	       1.081834
	 B(1,4,2)         =         1.900003	     108.862132
	 B(1,4,3)         =         1.903692	     109.073526
	 B(1,4,7)         =         1.916468	     109.805506
	 B(2,4,3)         =         1.900352	     108.882131
	 B(2,4,7)         =         1.929112	     110.529996
	 B(3,4,7)         =         1.913904	     109.658625
	 B(4,7,5)         =         1.905930	     109.201768
	 B(4,7,6)         =         1.907717	     109.304117
	 B(4,7,10)        =         1.935979	     110.923447
	 B(5,7,6)         =         1.906205	     109.217529
	 B(5,7,10)        =         1.903535	     109.064537
	 B(6,7,10)        =         1.904251	     109.105520
	 B(7,10,8)        =         1.904136	     109.098946
	 B(7,10,9)        =         1.904041	     109.093512
	 B(7,10,14)       =         1.936152	     110.933349
	 B(8,10,9)        =         1.905525	     109.178512
	 B(8,10,14)       =         1.907094	     109.268444
	 B(9,10,14)       =         1.906655	     109.243282
	 B(10,14,11)      =         1.929446	     110.549086
	 B(10,14,12)      =         1.917105	     109.842051
	 B(10,14,13)      =         1.914562	     109.696342
	 B(11,14,12)      =         1.899697	     108.844593
	 B(11,14,13)      =         1.900517	     108.891619
	 B(12,14,13)      =         1.902163	     108.985929
	 D(1,4,7,5)       =        -3.139771	    -179.895601
	 D(1,4,7,6)       =        -1.055391	     -60.469461
	 D(1,4,7,10)      =         1.045033	      59.875999
	 D(2,4,7,5)       =        -1.043315	     -59.777530
	 D(2,4,7,6)       =         1.041065	      59.648611
	 D(2,4,7,10)      =         3.141489	     179.994070
	 D(3,4,7,5)       =         1.051932	      60.271266
	 D(3,4,7,6)       =         3.136311	     179.697406
	 D(3,4,7,10)      =        -1.046449	     -59.957135
	 D(4,7,10,8)      =        -1.386475	     -79.439152
	 D(4,7,10,9)      =         0.693829	      39.753474
	 D(4,7,10,14)     =         2.794967	     160.139801
	 D(5,7,10,8)      =         2.796905	     160.250873
	 D(5,7,10,9)      =        -1.405976	     -80.556501
	 D(5,7,10,14)     =         0.695162	      39.829826
	 D(6,7,10,8)      =         0.716007	      41.024196
	 D(6,7,10,9)      =         2.796311	     160.216822
	 D(6,7,10,14)     =        -1.385736	     -79.396851
	 D(7,10,14,11)    =         3.140943	     179.962773
	 D(7,10,14,12)    =         1.044246	      59.830903
	 D(7,10,14,13)    =        -1.046159	     -59.940497
	 D(8,10,14,11)    =         1.040956	      59.642358
	 D(8,10,14,12)    =        -1.055741	     -60.489512
	 D(8,10,14,13)    =         3.137039	     179.739088
	 D(9,10,14,11)    =        -1.042657	     -59.739846
	 D(9,10,14,12)    =        -3.139354	    -179.871716
	 D(9,10,14,13)    =         1.053426	      60.356884

	Current energy   :      -158.1586927407

	Energy change for the previous step:
		Projected    :        -0.0045269825
		Actual       :        -0.0030082388

	Performing BFGS update.
	Previous computed or guess Hessian on step 1.
	Steps to be used in Hessian update: 1
	Adding user-defined constraint: Fragment 1; Coordinate 49:
		Value =     2.794967; Fixed value    =     2.792530
		Force =    -0.001279; Force constant =     0.525000
	Removing off-diagonal coupling between coordinate 49 and others.
	Taking RFO optimization step.
	Going to follow RFO solution 1.
	Using RFO vector 1.

	Determining step-restricting scale parameter for RS-RFO.
	Maximum step size allowed    0.10000

	 Iter      |step|        alpha        rfo_root  
	------------------------------------------------
	    0     0.19484       1.00000           1
	    1     0.15359       3.89999           1
	    2     0.12360      11.37656           1
	    3     0.10630      20.78055           1
	    4     0.10063      25.34842           1
	    5     0.10001      25.91086           1
	------------------------------------------------
	Norm of target step-size    0.10001
	Projected energy change by RFO approximation:        -0.0014498567

	Back-transformation to cartesian coordinates...
	Successfully converged to displaced geometry.

	--- Internal Coordinate Step in ANG or DEG, aJ/ANG or AJ/DEG ---
	 ---------------------------------------------------------------------------
	   Coordinate                Previous        Force       Change         New 
	   ----------                --------       ------       ------       ------
	    1 R(1,4)          =      1.082086     0.031419     0.005833     1.087919
	    2 R(2,4)          =      1.082656     0.026746     0.004760     1.087416
	    3 R(3,4)          =      1.081407     0.032314     0.005999     1.087406
	    4 R(4,7)          =      1.532804    -0.039492    -0.010593     1.522211
	    5 R(5,7)          =      1.082938     0.034635     0.006545     1.089483
	    6 R(6,7)          =      1.082741     0.033664     0.006288     1.089029
	    7 R(7,10)         =      1.532512    -0.031826    -0.008252     1.524260
	    8 R(8,10)         =      1.082737     0.033935     0.006330     1.089067
	    9 R(9,10)         =      1.082789     0.035421     0.006676     1.089465
	   10 R(10,14)        =      1.532309    -0.037877    -0.010187     1.522122
	   11 R(11,14)        =      1.082391     0.028212     0.005008     1.087399
	   12 R(12,14)        =      1.082107     0.031503     0.005843     1.087949
	   13 R(13,14)        =      1.081834     0.030160     0.005627     1.087461
	   14 B(1,4,2)        =    108.862132    -0.000160    -0.686236   108.175896
	   15 B(1,4,3)        =    109.073526    -0.000152    -0.814332   108.259193
	   16 B(1,4,7)        =    109.805506     0.000141     0.670180   110.475685
	   17 B(2,4,3)        =    108.882131    -0.000139    -0.595748   108.286383
	   18 B(2,4,7)        =    110.529996     0.000201     0.847701   111.377696
	   19 B(3,4,7)        =    109.658625     0.000101     0.512548   110.171174
	   20 B(4,7,5)        =    109.201768    -0.000032    -0.006576   109.195192
	   21 B(4,7,6)        =    109.304117    -0.000033     0.201191   109.505308
	   22 B(4,7,10)       =    110.923447     0.000266     1.101832   112.025280
	   23 B(5,7,6)        =    109.217529    -0.000086    -1.188276   108.029253
	   24 B(5,7,10)       =    109.064537    -0.000064    -0.145901   108.918635
	   25 B(6,7,10)       =    109.105520    -0.000056    -0.024339   109.081181
	   26 B(7,10,8)       =    109.098946    -0.000057    -0.023773   109.075173
	   27 B(7,10,9)       =    109.093512    -0.000065    -0.160809   108.932703
	   28 B(7,10,14)      =    110.933349     0.000267     1.098794   112.032143
	   29 B(8,10,9)       =    109.178512    -0.000084    -1.170548   108.007964
	   30 B(8,10,14)      =    109.268444    -0.000030     0.222264   109.490708
	   31 B(9,10,14)      =    109.243282    -0.000035    -0.028113   109.215169
	   32 B(10,14,11)     =    110.549086     0.000201     0.839805   111.388890
	   33 B(10,14,12)     =    109.842051     0.000132     0.635427   110.477478
	   34 B(10,14,13)     =    109.696342     0.000096     0.490142   110.186483
	   35 B(11,14,12)     =    108.844593    -0.000156    -0.671927   108.172666
	   36 B(11,14,13)     =    108.891619    -0.000139    -0.598369   108.293250
	   37 B(12,14,13)     =    108.985929    -0.000142    -0.760222   108.225707
	   38 D(1,4,7,5)      =   -179.895601     0.000010     0.328624  -179.566977
	   39 D(1,4,7,6)      =    -60.469461    -0.000023    -0.998573   -61.468033
	   40 D(1,4,7,10)     =     59.875999    -0.000005    -0.185262    59.690736
	   41 D(2,4,7,5)      =    -59.777530     0.000014     0.458345   -59.319185
	   42 D(2,4,7,6)      =     59.648611    -0.000019    -0.868852    58.779759
	   43 D(2,4,7,10)     =    179.994070    -0.000001    -0.055541   179.938529
	   44 D(3,4,7,5)      =     60.271266     0.000018     0.592788    60.864054
[...]
  CGR           6          0          1   2.706E-05
  CGR           7          0          1   5.733E-06
  CGR           8          0          1   1.262E-06
  CGR           9          1          0   2.039E-07

    CGRSolver converged.

  ==> DFCorrGrad: Density-Fitted Correlated Gradients <==

    OpenMP threads:              1
    Integrals threads:           1
    Memory (MB):               715
    Schwarz Cutoff:          0E+00
    Fitting Condition:       1E-12

   => Auxiliary Basis Set <=

  Basis Set: (AUG-CC-PVTZ AUX)
    Blend: AUG-CC-PVTZ-JKFIT
    Number of shells: 260
    Number of basis function: 876
    Number of Cartesian functions: 1074
    Spherical Harmonics?: true
    Max angular momentum: 4

	-----------------------------------------------------------
	 ==================> DF-MP2 Energies <==================== 
	-----------------------------------------------------------
	 Reference Energy          =    -157.3551004301376963 [Eh]
	 Singles Energy            =      -0.0000000000000001 [Eh]
	 Same-Spin Energy          =      -0.1654494840050226 [Eh]
	 Opposite-Spin Energy      =      -0.6394177371746739 [Eh]
	 Correlation Energy        =      -0.8048672211796966 [Eh]
	 Total Energy              =    -158.1599676513174018 [Eh]
	-----------------------------------------------------------
	 ================> DF-SCS-MP2 Energies <================== 
	-----------------------------------------------------------
	 SCS Same-Spin Scale       =       0.3333333333333333 [-]
	 SCS Opposite-Spin Scale   =       1.2000000000000000 [-]
	 SCS Same-Spin Energy      =      -0.0551498280016742 [Eh]
	 SCS Opposite-Spin Energy  =      -0.7673012846096087 [Eh]
	 SCS Correlation Energy    =      -0.8224511126112830 [Eh]
	 SCS Total Energy          =    -158.1775515427489722 [Eh]
	-----------------------------------------------------------


  -Total Gradient:
     Atom            X                  Y                   Z
    ------   -----------------  -----------------  -----------------
       1        0.000012562799    -0.000000820290     0.000014352284
       2       -0.000006840442     0.000005126273    -0.000005051496
       3        0.000004532471     0.000004580473     0.000008404205
       4        0.001112878718     0.000592914261    -0.001808423498
       5        0.000002154354    -0.000006173925    -0.000038868999
       6       -0.000017141250    -0.000017434577     0.000003188603
       7       -0.001351588964    -0.000641094670     0.001701102112
       8        0.000005857864     0.000010962758     0.000020423521
       9        0.000024922341     0.000020436739    -0.000021045615
      10       -0.000413749768    -0.000282230958     0.002209641137
      11        0.000007591846    -0.000005083900    -0.000000614245
      12       -0.000020186328    -0.000001228138     0.000000505775
      13       -0.000007590273    -0.000004503774    -0.000001337171
      14        0.000646596631     0.000324549727    -0.002082276614


*** tstop() called on cpu-6-2.local at Wed Jun 14 14:59:33 2017
Module time:
	user time   =     282.93 seconds =       4.72 minutes
	system time =       3.32 seconds =       0.06 minutes
	total time  =        287 seconds =       4.78 minutes
Total time:
	user time   =    2131.32 seconds =      35.52 minutes
	system time =      26.45 seconds =       0.44 minutes
	total time  =       2159 seconds =      35.98 minutes

			-----------------------------------------
			 OPTKING 2.0: for geometry optimizations 
			  - R.A. King,  Bethel University        
			-----------------------------------------

	Previous internal coordinate definitions found.
	---Fragment 1 Geometry and Gradient---
	 H          -4.4794530278        0.0635160236       -0.6586316494
	 H          -3.9406102327        3.3047003261       -1.1711858829
	 H          -2.6938092063        1.0522908790       -3.2800181367
	 C          -3.0891216326        1.4385501983       -1.2994130747
	 H           0.6831958862        2.6253545273       -0.4690711348
	 H          -1.0544309100        1.7857330603        2.2090542879
	 C          -0.6842784860        1.2597530725        0.2516205712
	 H          -0.5708639328       -2.6343175797        1.3838732823
	 H           0.3204066765       -2.1013725826       -1.7495268755
	 C           0.4950487169       -1.3585561053        0.1667104378
	 H           4.0619808333       -3.2413281866        0.9028188134
	 H           3.5084628033       -0.5704629382        2.8050725170
	 H           4.3519001044       -0.1865611421       -0.3854047852
	 C           3.2626646895       -1.3479401437        0.9157696870
	             0.0000125628       -0.0000008203        0.0000143523
	            -0.0000068404        0.0000051263       -0.0000050515
	             0.0000045325        0.0000045805        0.0000084042
	             0.0011128787        0.0005929143       -0.0018084235
	             0.0000021544       -0.0000061739       -0.0000388690
	            -0.0000171413       -0.0000174346        0.0000031886
	            -0.0013515890       -0.0006410947        0.0017011021
	             0.0000058579        0.0000109628        0.0000204235
	             0.0000249223        0.0000204367       -0.0000210456
	            -0.0004137498       -0.0002822310        0.0022096411
	             0.0000075918       -0.0000050839       -0.0000006142
	            -0.0000201863       -0.0000012281        0.0000005058
	            -0.0000075903       -0.0000045038       -0.0000013372
	             0.0006465966        0.0003245497       -0.0020822766

	---Fragment 1 Intrafragment Coordinates---
	 - Coordinate -           - BOHR/RAD -       - ANG/DEG -
	 R(1,4)           =         2.057751	       1.088915
	 R(2,4)           =         2.055235	       1.087584
	 R(3,4)           =         2.056274	       1.088134
	 R(4,7)           =         2.867219	       1.517267
	 R(5,7)           =         2.062583	       1.091472
	 R(6,7)           =         2.060392	       1.090312
	 R(7,10)          =         2.872902	       1.520274
	 R(8,10)          =         2.060394	       1.090313
	 R(9,10)          =         2.062581	       1.091471
	 R(10,14)         =         2.867211	       1.517263
	 R(11,14)         =         2.055235	       1.087584
	 R(12,14)         =         2.057754	       1.088917
	 R(13,14)         =         2.056281	       1.088137
	 B(1,4,2)         =         1.883246	     107.902022
	 B(1,4,3)         =         1.880011	     107.716699
	 B(1,4,7)         =         1.935396	     110.890026
	 B(2,4,3)         =         1.886310	     108.077624
	 B(2,4,7)         =         1.950195	     111.737961
	 B(3,4,7)         =         1.926328	     110.370468
	 B(4,7,5)         =         1.902625	     109.012382
	 B(4,7,6)         =         1.925511	     110.323664
	 B(4,7,10)        =         1.966163	     112.652843
	 B(5,7,6)         =         1.856718	     106.382099
	 B(5,7,10)        =         1.897502	     108.718874
	 B(6,7,10)        =         1.911854	     109.541191
	 B(7,10,8)        =         1.911857	     109.541312
	 B(7,10,9)        =         1.897502	     108.718873
	 B(7,10,14)       =         1.966162	     112.652768
	 B(8,10,9)        =         1.856709	     106.381565
	 B(8,10,14)       =         1.925514	     110.323803
	 B(9,10,14)       =         1.902631	     109.012704
	 B(10,14,11)      =         1.950183	     111.737233
	 B(10,14,12)      =         1.935383	     110.889275
	 B(10,14,13)      =         1.926328	     110.370451
	 B(11,14,12)      =         1.883260	     107.902856
	 B(11,14,13)      =         1.886324	     108.078379
	 B(12,14,13)      =         1.880011	     107.716683
	 D(1,4,7,5)       =         3.116206	     178.545454
	 D(1,4,7,6)       =        -1.134180	     -64.983749
	 D(1,4,7,10)      =         1.008340	      57.773611
	 D(2,4,7,5)       =        -1.065200	     -61.031445
	 D(2,4,7,6)       =         0.967599	      55.439352
	 D(2,4,7,10)      =         3.110119	     178.196712
	 D(3,4,7,5)       =         1.034276	      59.259674
	 D(3,4,7,6)       =         3.067075	     175.730472
	 D(3,4,7,10)      =        -1.073590	     -61.512169
	 D(4,7,10,8)      =        -1.333367	     -76.396301
	 D(4,7,10,9)      =         0.688859	      39.468706
	 D(4,7,10,14)     =         2.799661	     160.408778
	 D(5,7,10,8)      =         2.839022	     162.663984
	 D(5,7,10,9)      =        -1.421937	     -81.471009
	 D(5,7,10,14)     =         0.688865	      39.469063
	 D(6,7,10,8)      =         0.816786	      46.798404
	 D(6,7,10,9)      =         2.839012	     162.663411
	 D(6,7,10,14)     =        -1.333371	     -76.396516
	 D(7,10,14,11)    =         3.110127	     178.197137
	 D(7,10,14,12)    =         1.008346	      57.773982
	 D(7,10,14,13)    =        -1.073574	     -61.511284
	 D(8,10,14,11)    =         0.967603	      55.439570
	 D(8,10,14,12)    =        -1.134177	     -64.983584
	 D(8,10,14,13)    =         3.067087	     175.731149
	 D(9,10,14,11)    =        -1.065189	     -61.030848
	 D(9,10,14,12)    =         3.116216	     178.545998
	 D(9,10,14,13)    =         1.034295	      59.260731

	Current energy   :      -158.1599676513

	Energy change for the previous step:
		Projected    :         0.0000002486
		Actual       :        -0.0000008163

	Performing BFGS update.
	Previous computed or guess Hessian on step 1.
	Steps to be used in Hessian update: 6 5
	Adding user-defined constraint: Fragment 1; Coordinate 49:
		Value =     2.799661; Fixed value    =     2.792530
		Force =    -0.004635; Force constant =     0.650000
	Removing off-diagonal coupling between coordinate 49 and others.
	Taking RFO optimization step.
	Going to follow RFO solution 1.
	Rejecting RFO root 1 because normalization gives large value.
	Using RFO vector 2.
	Norm of target step-size    0.00847
	Projected energy change by RFO approximation:         0.0000024607

	Back-transformation to cartesian coordinates...
	Successfully converged to displaced geometry.

	--- Internal Coordinate Step in ANG or DEG, aJ/ANG or AJ/DEG ---
	 ---------------------------------------------------------------------------
	   Coordinate                Previous        Force       Change         New 
	   ----------                --------       ------       ------       ------
	    1 R(1,4)          =      1.088915     0.000029     0.000016     1.088931
	    2 R(2,4)          =      1.087584    -0.000059    -0.000017     1.087566
	    3 R(3,4)          =      1.088134     0.000067     0.000060     1.088193
	    4 R(4,7)          =      1.517267    -0.000529    -0.000480     1.516787
	    5 R(5,7)          =      1.091472    -0.000090    -0.000058     1.091415
	    6 R(6,7)          =      1.090312    -0.000014     0.000045     1.090358
	    7 R(7,10)         =      1.520274    -0.000321    -0.000204     1.520070
	    8 R(8,10)         =      1.090313    -0.000019     0.000042     1.090355
	    9 R(9,10)         =      1.091471    -0.000083    -0.000055     1.091416
	   10 R(10,14)        =      1.517263    -0.000506    -0.000473     1.516790
	   11 R(11,14)        =      1.087584    -0.000063    -0.000017     1.087567
	   12 R(12,14)        =      1.088917     0.000020     0.000012     1.088929
	   13 R(13,14)        =      1.088137     0.000047     0.000051     1.088188
	   14 B(1,4,2)        =    107.902022    -0.000000    -0.010718   107.891303
	   15 B(1,4,3)        =    107.716699    -0.000001    -0.022293   107.694406
	   16 B(1,4,7)        =    110.890026     0.000002     0.035854   110.925880
	   17 B(2,4,3)        =    108.077624     0.000000    -0.007468   108.070156
	   18 B(2,4,7)        =    111.737961    -0.000001    -0.016491   111.721470
	   19 B(3,4,7)        =    110.370468     0.000000     0.019177   110.389645
	   20 B(4,7,5)        =    109.012382    -0.000008     0.045674   109.058056
	   21 B(4,7,6)        =    110.323664     0.000009    -0.010550   110.313114
	   22 B(4,7,10)       =    112.652843    -0.000000     0.028290   112.681133
	   23 B(5,7,6)        =    106.382099    -0.000001    -0.075606   106.306493
	   24 B(5,7,10)       =    108.718874     0.000000     0.058755   108.777630
	   25 B(6,7,10)       =    109.541191    -0.000000    -0.050926   109.490265
	   26 B(7,10,8)       =    109.541312    -0.000000    -0.051395   109.489917
	   27 B(7,10,9)       =    108.718873     0.000000     0.058660   108.777533
	   28 B(7,10,14)      =    112.652768    -0.000000     0.028521   112.681288
	   29 B(8,10,9)       =    106.381565    -0.000001    -0.073899   106.307666
	   30 B(8,10,14)      =    110.323803     0.000009    -0.010715   110.313088
	   31 B(9,10,14)      =    109.012704    -0.000008     0.044553   109.057257
	   32 B(10,14,11)     =    111.737233    -0.000001    -0.013746   111.723488
	   33 B(10,14,12)     =    110.889275     0.000002     0.038625   110.927899
	   34 B(10,14,13)     =    110.370451     0.000000     0.019681   110.390132
	   35 B(11,14,12)     =    107.902856    -0.000001    -0.013887   107.888969
	   36 B(11,14,13)     =    108.078379     0.000000    -0.010265   108.068114
	   37 B(12,14,13)     =    107.716683    -0.000001    -0.022660   107.694023
	   38 D(1,4,7,5)      =    178.545454    -0.000000     0.051332   178.596786
	   39 D(1,4,7,6)      =    -64.983749    -0.000001    -0.019350   -65.003099
	   40 D(1,4,7,10)     =     57.773611     0.000001    -0.072991    57.700619
	   41 D(2,4,7,5)      =    -61.031445    -0.000000     0.051150   -60.980294
	   42 D(2,4,7,6)      =     55.439352    -0.000001    -0.019532    55.419821
	   43 D(2,4,7,10)     =    178.196712     0.000001    -0.073173   178.123539
	   44 D(3,4,7,5)      =     59.259674    -0.000000     0.043787    59.303462
	   45 D(3,4,7,6)      =    175.730472    -0.000001    -0.026895   175.703577
	   46 D(3,4,7,10)     =    -61.512169     0.000001    -0.080536   -61.592705
	   47 D(4,7,10,8)     =    -76.396301    -0.000002    -0.038649   -76.434950
	   48 D(4,7,10,9)     =     39.468706    -0.000003    -0.122376    39.346330
	   49 D(4,7,10,14)    =    160.408778    -0.000005    -0.007155   160.401623
	   50 D(5,7,10,8)     =    162.663984    -0.000000    -0.155203   162.508781
	   51 D(5,7,10,9)     =    -81.471009    -0.000000    -0.238930   -81.709939
	   52 D(5,7,10,14)    =     39.469063    -0.000003    -0.123709    39.345354
	   53 D(6,7,10,8)     =     46.798404     0.000000    -0.069749    46.728656
	   54 D(6,7,10,9)     =    162.663411    -0.000000    -0.153475   162.509936
	   55 D(6,7,10,14)    =    -76.396516    -0.000002    -0.038254   -76.434771
	   56 D(7,10,14,11)   =    178.197137     0.000001    -0.074274   178.122863
	   57 D(7,10,14,12)   =     57.773982     0.000001    -0.073824    57.700159
	   58 D(7,10,14,13)   =    -61.511284     0.000001    -0.083011   -61.594295
	   59 D(8,10,14,11)   =     55.439570    -0.000001    -0.020067    55.419504
	   60 D(8,10,14,12)   =    -64.983584    -0.000001    -0.019616   -65.003200
	   61 D(8,10,14,13)   =    175.731149    -0.000001    -0.028804   175.702345
	   62 D(9,10,14,11)   =    -61.030848    -0.000000     0.049302   -60.981547
	   63 D(9,10,14,12)   =    178.545998    -0.000000     0.049752   178.595749
	   64 D(9,10,14,13)   =     59.260731    -0.000000     0.040564    59.301295
	 ---------------------------------------------------------------------------
	Successfully symmetrized geometry.
	 Forces used to impose fixed constraints are not included.
	  Forces zeroed: 49 

  ==> Convergence Check <==

  Measures of convergence in internal coordinates in au.
  Criteria marked as inactive (o), active & met (*), and active & unmet ( ).
  ---------------------------------------------------------------------------------------------
   Step     Total Energy     Delta E     MAX Force     RMS Force      MAX Disp      RMS Disp   
  ---------------------------------------------------------------------------------------------
    Convergence Criteria    1.00e-06 *    3.00e-04 *             o    1.20e-03 *             o
  ---------------------------------------------------------------------------------------------
      7    -158.15996765   -8.16e-07 *    1.50e-04 *    5.10e-05 o    4.17e-03      1.06e-03 o  ~
  ---------------------------------------------------------------------------------------------


  **** Optimization is complete! (in 7 steps) ****

  ==> Optimization Summary <==

  Measures of convergence in internal coordinates in au.
  --------------------------------------------------------------------------------------------------------------- ~
   Step         Total Energy             Delta E       MAX Force       RMS Force        MAX Disp        RMS Disp  ~
  --------------------------------------------------------------------------------------------------------------- ~
      1    -158.155684501921   -158.155684501921      0.01292703      0.00557273      0.02493922      0.01251768  ~
      2    -158.158692740698     -0.003008238776      0.00479352      0.00221713      0.03583175      0.01251945  ~
      3    -158.159689297449     -0.000996556751      0.00165305      0.00061981      0.04401526      0.01252293  ~
      4    -158.159928434644     -0.000239137195      0.00063711      0.00018295      0.02725320      0.01249941  ~
      5    -158.159964976043     -0.000036541400      0.00016046      0.00004701      0.00664002      0.00321479  ~
      6    -158.159966835030     -0.000001858987      0.00019899      0.00004339      0.00136841      0.00033823  ~
      7    -158.159967651317     -0.000000816287      0.00028069      0.00006191      0.00417012      0.00105857  ~
  --------------------------------------------------------------------------------------------------------------- ~

	Writing optimization data to binary file.
	Final energy is   -158.1599676513174
	Final (previous) structure:
	Cartesian Geometry (in Angstrom)
	    H    -2.3704244492   0.0336112321  -0.3485328577
	    H    -2.0852811231   1.7487720938  -0.6197648763
	    H    -1.4255024363   0.5568483500  -1.7357108417
	    C    -1.6346927625   0.7612479783  -0.6876197837
	    H     0.3615316920   1.3892777803  -0.2482217537
	    H    -0.5579808056   0.9449692361   1.1689811817
	    C    -0.3621045791   0.6666326144   0.1331518715
	    H    -0.3020881824  -1.3940208234   0.7323142006
	    H     0.1695519107  -1.1119984775  -0.9258097483
	    C     0.2619684981  -0.7189169275   0.0882193641
	    H     2.1495076787  -1.7152370019   0.4777511396
	    H     1.8565985527  -0.3018759852   1.4843804444
	    H     2.3029263493  -0.0987239044  -0.2039474284
	    C     1.7265277929  -0.7132992026   0.4846044467
	Saving final (previous) structure.
			--------------------------
			 OPTKING Finished Execution 
			--------------------------

    Final optimized geometry and variables:
    Molecular point group: c1
    Full point group: C1

    Geometry (in Angstrom), charge = 0, multiplicity = 1:

    H           -2.370424449246     0.033611232059    -0.348532857734
    H           -2.085281123096     1.748772093813    -0.619764876265
    H           -1.425502436259     0.556848349958    -1.735710841698
    C           -1.634692762512     0.761247978334    -0.687619783660
    H            0.361531692004     1.389277780329    -0.248221753748
    H           -0.557980805595     0.944969236117     1.168981181687
    C           -0.362104579097     0.666632614423     0.133151871469
    H           -0.302088182423    -1.394020823352     0.732314200582
    H            0.169551910660    -1.111998477454    -0.925809748314
    C            0.261968498114    -0.718916927497     0.088219364124
    H            2.149507678728    -1.715237001898     0.477751139553
    H            1.856598552697    -0.301875985227     1.484380444449
    H            2.302926349289    -0.098723904415    -0.203947428436
    C            1.726527792948    -0.713299202564     0.484604446664

	Cleaning optimization helper files.

*** Psi4 exiting successfully. Buy a developer a beer!
