
    -----------------------------------------------------------------------
          Psi4: An Open-Source Ab Initio Electronic Structure Package
                               Psi4 1.1 release

                         Git: Rev {HEAD} add49b9 


    R. M. Parrish, L. A. Burns, D. G. A. Smith, A. C. Simmonett,
    A. E. DePrince III, E. G. Hohenstein, U. Bozkaya, A. Yu. Sokolov,
    R. Di Remigio, R. M. Richard, J. F. Gonthier, A. M. James,
    H. R. McAlexander, A. Kumar, M. Saitow, X. Wang, B. P. Pritchard,
    P. Verma, H. F. Schaefer III, K. Patkowski, R. A. King, E. F. Valeev,
    F. A. Evangelista, J. M. Turney, T. D. Crawford, and C. D. Sherrill,
    J. Chem. Theory Comput. in press (2017).
    (doi: 10.1021/acs.jctc.7b00174)

    -----------------------------------------------------------------------


    Psi4 started on: Wednesday, 14 June 2017 02:20PM

    Process ID:   4476
    PSIDATADIR: /cbio/jclab/home/chayas/anaconda/envs/py35/share/psi4
    Memory:     500.0 MiB
    Threads:    1
    
  ==> Input File <==

--------------------------------------------------------------------------

memory 5000 mb

molecule butane {
  symmetry C1
  0 1 
  H      1.637   0.633   -8.377
  H      1.702   2.347   -8.715
  H      2.053   1.192   -9.978
  C      2.142   1.395   -8.932
  H      4.169   2.051   -9.210
  H      3.731   1.788   -7.539
  C      3.631   1.416   -8.537
  H      3.665   -0.647   -7.940
  H      4.104   -0.384   -9.610
  C      4.203   -0.012   -8.612
  H      6.088   -0.983   -8.270
  H      5.791   0.381   -7.220
  H      6.230   0.644   -8.890
  C      5.691   0.009   -8.218
  units Angstrom
}

dih_string = "10 7 4 3 290"
set optking fixed_dihedral = $dih_string

optimize('MP2/aug-cc-pvtz')
--------------------------------------------------------------------------

  Memory set to   4.657 GiB by Python driver.
gradient() will perform analytic gradient computation.

*** tstart() called on gpu-2-14.local
*** at Wed Jun 14 14:20:27 2017

    SCF Algorithm Type (re)set to DF.

*** tstart() called on gpu-2-14.local
*** at Wed Jun 14 14:20:27 2017

   => Loading Basis Set <=

    Name: AUG-CC-PVTZ
    Role: ORBITAL
    Keyword: BASIS
    atoms 1-3, 5-6, 8-9, 11-13 entry H          line    34 file /cbio/jclab/home/chayas/anaconda/envs/py35/share/psi4/basis/aug-cc-pvtz.gbs 
    atoms 4, 7, 10, 14         entry C          line   221 file /cbio/jclab/home/chayas/anaconda/envs/py35/share/psi4/basis/aug-cc-pvtz.gbs 


         ---------------------------------------------------------
                                   SCF
            by Justin Turney, Rob Parrish, and Andy Simmonett
                              RHF Reference
                        1 Threads,   4768 MiB Core
         ---------------------------------------------------------

  ==> Geometry <==

    Molecular point group: c1
    Full point group: C1

    Geometry (in Angstrom), charge = 0, multiplicity = 1:

       Center              X                  Y                   Z               Mass       
    ------------   -----------------  -----------------  -----------------  -----------------
           H         -2.279793382205    -0.069034705764     0.197776029323     1.007825032070
           H         -2.214793382205     1.644965294236    -0.140223970677     1.007825032070
           H         -1.863793382205     0.489965294236    -1.403223970677     1.007825032070
           C         -1.774793382205     0.692965294236    -0.357223970677    12.000000000000
           H          0.252206617795     1.348965294236    -0.635223970677     1.007825032070
           H         -0.185793382205     1.085965294236     1.035776029323     1.007825032070
           C         -0.285793382205     0.713965294236     0.037776029323    12.000000000000
           H         -0.251793382205    -1.349034705764     0.634776029323     1.007825032070
           H          0.187206617795    -1.086034705764    -1.035223970677     1.007825032070
           C          0.286206617795    -0.714034705764    -0.037223970677    12.000000000000
           H          2.171206617795    -1.685034705764     0.304776029323     1.007825032070
           H          1.874206617795    -0.321034705764     1.354776029323     1.007825032070
           H          2.313206617795    -0.058034705764    -0.315223970677     1.007825032070
           C          1.774206617795    -0.693034705764     0.356776029323    12.000000000000

  Running in c1 symmetry.

  Rotational constants: A =      0.76950  B =      0.12464  C =      0.11638 [cm^-1]
  Rotational constants: A =  23069.13626  B =   3736.75808  C =   3488.88701 [MHz]
  Nuclear repulsion =  131.822364521411430

  Charge       = 0
  Multiplicity = 1
  Electrons    = 34
  Nalpha       = 17
  Nbeta        = 17

  ==> Algorithm <==

  SCF Algorithm Type is DF.
  DIIS enabled.
  MOM disabled.
  Fractional occupation disabled.
  Guess Type is SAD.
  Energy threshold   = 1.00e-10
  Density threshold  = 1.00e-10
  Integral threshold = 0.00e+00

  ==> Primary Basis <==

  Basis Set: AUG-CC-PVTZ
    Blend: AUG-CC-PVTZ
    Number of shells: 146
    Number of basis function: 414
    Number of Cartesian functions: 470
    Spherical Harmonics?: true
    Max angular momentum: 3

   => Loading Basis Set <=

    Name: (AUG-CC-PVTZ AUX)
    Role: JKFIT
    Keyword: DF_BASIS_SCF
    atoms 1-3, 5-6, 8-9, 11-13 entry H          line    69 file /cbio/jclab/home/chayas/anaconda/envs/py35/share/psi4/basis/aug-cc-pvtz-jkfit.gbs 
    atoms 4, 7, 10, 14         entry C          line   161 file /cbio/jclab/home/chayas/anaconda/envs/py35/share/psi4/basis/aug-cc-pvtz-jkfit.gbs 

  ==> Pre-Iterations <==

   -------------------------------------------------------
    Irrep   Nso     Nmo     Nalpha   Nbeta   Ndocc  Nsocc
   -------------------------------------------------------
     A        414     414       0       0       0       0
   -------------------------------------------------------
    Total     414     414      17      17      17       0
   -------------------------------------------------------

  ==> Integral Setup <==

  ==> DFJK: Density-Fitted J/K Matrices <==

    J tasked:                  Yes
    K tasked:                  Yes
    wK tasked:                  No
    OpenMP threads:              1
    Integrals threads:           1
    Memory (MB):              3576
    Algorithm:                Core
    Integral Cache:           NONE
    Schwarz Cutoff:          1E-12
    Fitting Condition:       1E-12

   => Auxiliary Basis Set <=

  Basis Set: (AUG-CC-PVTZ AUX)
    Blend: AUG-CC-PVTZ-JKFIT
    Number of shells: 260
    Number of basis function: 876
    Number of Cartesian functions: 1074
    Spherical Harmonics?: true
    Max angular momentum: 4

  Minimum eigenvalue in the overlap matrix is 7.9182287139E-06.
  Using Symmetric Orthogonalization.

  SCF Guess: Superposition of Atomic Densities via on-the-fly atomic UHF.

  ==> Iterations <==

                           Total Energy        Delta E     RMS |[F,P]|

   @DF-RHF iter   0:  -158.77632476319286   -1.58776e+02   9.13354e-03 
   @DF-RHF iter   1:  -157.21374412779983    1.56258e+00   1.11563e-03 
   @DF-RHF iter   2:  -157.33159775038698   -1.17854e-01   4.30808e-04 DIIS
   @DF-RHF iter   3:  -157.34989978932060   -1.83020e-02   1.24815e-04 DIIS
   @DF-RHF iter   4:  -157.35235309858473   -2.45331e-03   2.19717e-05 DIIS
   @DF-RHF iter   5:  -157.35243392447268   -8.08259e-05   7.21609e-06 DIIS
   @DF-RHF iter   6:  -157.35244194028698   -8.01581e-06   1.39361e-06 DIIS
   @DF-RHF iter   7:  -157.35244235270056   -4.12414e-07   2.28197e-07 DIIS
   @DF-RHF iter   8:  -157.35244236523695   -1.25364e-08   3.81557e-08 DIIS
   @DF-RHF iter   9:  -157.35244236555079   -3.13833e-10   8.52388e-09 DIIS
   @DF-RHF iter  10:  -157.35244236556866   -1.78773e-11   1.61446e-09 DIIS
   @DF-RHF iter  11:  -157.35244236556997   -1.30740e-12   2.51190e-10 DIIS
   @DF-RHF iter  12:  -157.35244236556844    1.53477e-12   5.69592e-11 DIIS

  ==> Post-Iterations <==

    Orbital Energies (a.u.)
    -----------------------

    Doubly Occupied:                                                      

       1A    -11.207060     2A    -11.206471     3A    -11.198648  
       4A    -11.198644     5A     -1.070685     6A     -0.981203  
       7A     -0.861621     8A     -0.794889     9A     -0.647553  
      10A     -0.587688    11A     -0.575215    12A     -0.570612  
      13A     -0.514651    14A     -0.503452    15A     -0.476018  
      16A     -0.468612    17A     -0.441681  

    Virtual:                                                              

      18A      0.032268    19A      0.037066    20A      0.039641  
      21A      0.040909    22A      0.056621    23A      0.058502  
      24A      0.059659    25A      0.061153    26A      0.081981  
      27A      0.085065    28A      0.096708    29A      0.112367  
      30A      0.123316    31A      0.130747    32A      0.135626  
      33A      0.142022    34A      0.143712    35A      0.146812  
      36A      0.148444    37A      0.159572    38A      0.159783  
      39A      0.167853    40A      0.170476    41A      0.202207  
      42A      0.209441    43A      0.211756    44A      0.230044  
      45A      0.249358    46A      0.250728    47A      0.251860  
      48A      0.270182    49A      0.275407    50A      0.282003  
      51A      0.282610    52A      0.316004    53A      0.318671  
      54A      0.332153    55A      0.337815    56A      0.339703  
      57A      0.348562    58A      0.357294    59A      0.358574  
      60A      0.360411    61A      0.373915    62A      0.374375  
      63A      0.384487    64A      0.389033    65A      0.390431  
      66A      0.392316    67A      0.395398    68A      0.402701  
      69A      0.408838    70A      0.414603    71A      0.424528  
      72A      0.430257    73A      0.443584    74A      0.449257  
      75A      0.457692    76A      0.462276    77A      0.464848  
      78A      0.469327    79A      0.475956    80A      0.477393  
      81A      0.485330    82A      0.491772    83A      0.499406  
      84A      0.506102    85A      0.507365    86A      0.511457  
      87A      0.522988    88A      0.526221    89A      0.528957  
      90A      0.537358    91A      0.545928    92A      0.561876  
      93A      0.565420    94A      0.576135    95A      0.587155  
      96A      0.595895    97A      0.599109    98A      0.613621  
      99A      0.626712   100A      0.634358   101A      0.639632  
     102A      0.655963   103A      0.685605   104A      0.691990  
     105A      0.702703   106A      0.705781   107A      0.764005  
     108A      0.777602   109A      0.797392   110A      0.817055  
     111A      0.824077   112A      0.826699   113A      0.838970  
     114A      0.843485   115A      0.846516   116A      0.856876  
     117A      0.861550   118A      0.865203   119A      0.887672  
     120A      0.891005   121A      0.898189   122A      0.904498  
     123A      0.908907   124A      0.922309   125A      0.924669  
     126A      0.933606   127A      0.938948   128A      0.947128  
     129A      0.949546   130A      0.960733   131A      0.964317  
     132A      0.969209   133A      0.983128   134A      0.990855  
     135A      0.996321   136A      1.010748   137A      1.012555  
     138A      1.030987   139A      1.048510   140A      1.055623  
     141A      1.072073   142A      1.079506   143A      1.097279  
     144A      1.104819   145A      1.111840   146A      1.127618  
     147A      1.131844   148A      1.133441   149A      1.136809  
     150A      1.162245   151A      1.165697   152A      1.169160  
     153A      1.175129   154A      1.199810   155A      1.202958  
     156A      1.214746   157A      1.225932   158A      1.244193  
     159A      1.253646   160A      1.256605   161A      1.261574  
     162A      1.266606   163A      1.274666   164A      1.280476  
     165A      1.289646   166A      1.305519   167A      1.314742  
     168A      1.330260   169A      1.343650   170A      1.353151  
     171A      1.361716   172A      1.375334   173A      1.393352  
     174A      1.428842   175A      1.433085   176A      1.438833  
     177A      1.463143   178A      1.486280   179A      1.496191  
     180A      1.503513   181A      1.530169   182A      1.533323  
     183A      1.551142   184A      1.557699   185A      1.577648  
     186A      1.581463   187A      1.596770   188A      1.616167  
     189A      1.627881   190A      1.637641   191A      1.646514  
     192A      1.649980   193A      1.684248   194A      1.688405  
     195A      1.700460   196A      1.703053   197A      1.712110  
     198A      1.715655   199A      1.737662   200A      1.740386  
     201A      1.748808   202A      1.758367   203A      1.760856  
     204A      1.778501   205A      1.780342   206A      1.787571  
     207A      1.793776   208A      1.801784   209A      1.829400  
     210A      1.850491   211A      1.864244   212A      1.871034  
     213A      1.890354   214A      1.900503   215A      1.919111  
     216A      1.921701   217A      1.966625   218A      1.977155  
     219A      1.983881   220A      1.986546   221A      1.994963  
     222A      1.999070   223A      2.034711   224A      2.051122  
     225A      2.058612   226A      2.070161   227A      2.098434  
     228A      2.105193   229A      2.145094   230A      2.151074  
     231A      2.161455   232A      2.189570   233A      2.194235  
     234A      2.206407   235A      2.246669   236A      2.257860  
     237A      2.261066   238A      2.291388   239A      2.307509  
     240A      2.322288   241A      2.333860   242A      2.334416  
     243A      2.345311   244A      2.352875   245A      2.377158  
     246A      2.388717   247A      2.433186   248A      2.457855  
     249A      2.471773   250A      2.473696   251A      2.504330  
     252A      2.548521   253A      2.607225   254A      2.618710  
     255A      2.650531   256A      2.676474   257A      2.689462  
     258A      2.885512   259A      2.901445   260A      3.006793  
     261A      3.236248   262A      3.255502   263A      3.274141  
     264A      3.382081   265A      3.400878   266A      3.420718  
     267A      3.452745   268A      3.462589   269A      3.480195  
     270A      3.482163   271A      3.519676   272A      3.535580  
     273A      3.562775   274A      3.575635   275A      3.592836  
     276A      3.606835   277A      3.623886   278A      3.666823  
     279A      3.690480   280A      3.694420   281A      3.719889  
     282A      3.727446   283A      3.729600   284A      3.740111  
     285A      3.753398   286A      3.759586   287A      3.790976  
     288A      3.795550   289A      3.806867   290A      3.817625  
     291A      3.844685   292A      3.857649   293A      3.881739  
     294A      3.890610   295A      3.914004   296A      3.918669  
     297A      3.931488   298A      3.938589   299A      3.967227  
     300A      4.000606   301A      4.010398   302A      4.014626  
     303A      4.020789   304A      4.027881   305A      4.045856  
     306A      4.052559   307A      4.066660   308A      4.077468  
     309A      4.134968   310A      4.180192   311A      4.209489  
     312A      4.220110   313A      4.230703   314A      4.247067  
     315A      4.254887   316A      4.270449   317A      4.278423  
     318A      4.286567   319A      4.308813   320A      4.322704  
     321A      4.349940   322A      4.367176   323A      4.374999  
     324A      4.405440   325A      4.425966   326A      4.436353  
     327A      4.538036   328A      4.556446   329A      4.579883  
     330A      4.589129   331A      4.639020   332A      4.665072  
     333A      4.691509   334A      4.706064   335A      4.726310  
     336A      4.742761   337A      4.745086   338A      4.758777  
     339A      4.766352   340A      4.804724   341A      4.812329  
     342A      4.859159   343A      4.870314   344A      4.883448  
     345A      4.888625   346A      4.903297   347A      4.925849  
     348A      4.954153   349A      4.973110   350A      4.998856  
     351A      5.047101   352A      5.062482   353A      5.079872  
     354A      5.101793   355A      5.126936   356A      5.184036  
     357A      5.187144   358A      5.215392   359A      5.224455  
     360A      5.228860   361A      5.257584   362A      5.271103  
     363A      5.273763   364A      5.295581   365A      5.308191  
     366A      5.361915   367A      5.399877   368A      5.423531  
     369A      5.436452   370A      5.441362   371A      5.456686  
     372A      5.461907   373A      5.484031   374A      5.507748  
     375A      5.576583   376A      5.598174   377A      5.627634  
     378A      5.635967   379A      5.685387   380A      5.690060  
     381A      5.694864   382A      5.752158   383A      5.772667  
     384A      5.802998   385A      5.826229   386A      5.877883  
     387A      5.906144   388A      5.922250   389A      5.950546  
     390A      6.031563   391A      6.105478   392A      6.156677  
     393A      6.166806   394A      6.172707   395A      6.256052  
     396A      6.261996   397A      6.279380   398A      6.306820  
     399A      6.310695   400A      6.360718   401A      6.400447  
     402A      6.441463   403A      6.551311   404A      6.558291  
     405A      6.752327   406A      6.783645   407A      6.824644  
     408A      6.842589   409A      6.861931   410A      6.984358  
     411A     18.019153   412A     18.375165   413A     18.461922  
     414A     18.897334  

    Final Occupation by Irrep:
              A 
    DOCC [    17 ]

  Energy converged.

  @DF-RHF Final Energy:  -157.35244236556844

   => Energetics <=

    Nuclear Repulsion Energy =            131.8223645214114299
    One-Electron Energy =                -471.7402074886944092
    Two-Electron Energy =                 182.5654006017145434
    DFT Exchange-Correlation Energy =       0.0000000000000000
    Empirical Dispersion Energy =           0.0000000000000000
    PCM Polarization Energy =               0.0000000000000000
    EFP Energy =                            0.0000000000000000
    Total Energy =                       -157.3524423655684359



Properties will be evaluated at   0.000000,   0.000000,   0.000000 Bohr

Properties computed using the SCF density matrix

  Nuclear Dipole Moment: (a.u.)
     X:     0.0019      Y:     0.0015      Z:    -0.0012

  Electronic Dipole Moment: (a.u.)
     X:    -0.0014      Y:    -0.0022      Z:     0.0001

  Dipole Moment: (a.u.)
     X:     0.0005      Y:    -0.0006      Z:    -0.0010     Total:     0.0013

  Dipole Moment: (Debye)
     X:     0.0013      Y:    -0.0016      Z:    -0.0027     Total:     0.0034


*** tstop() called on gpu-2-14.local at Wed Jun 14 14:22:14 2017
Module time:
	user time   =      95.77 seconds =       1.60 minutes
	system time =       0.71 seconds =       0.01 minutes
	total time  =        107 seconds =       1.78 minutes
Total time:
	user time   =      95.78 seconds =       1.60 minutes
	system time =       0.71 seconds =       0.01 minutes
	total time  =        107 seconds =       1.78 minutes

  //>>>>>>>>>>>>>>>>>>>>>>>>>>>>>>>>>>>//
  //               DFMP2               //
  //<<<<<<<<<<<<<<<<<<<<<<<<<<<<<<<<<<<//

   => Loading Basis Set <=

    Name: (AUG-CC-PVTZ AUX)
    Role: RIFIT
    Keyword: DF_BASIS_MP2
    atoms 1-3, 5-6, 8-9, 11-13 entry H          line    29 file /cbio/jclab/home/chayas/anaconda/envs/py35/share/psi4/basis/aug-cc-pvtz-ri.gbs 
    atoms 4, 7, 10, 14         entry C          line   147 file /cbio/jclab/home/chayas/anaconda/envs/py35/share/psi4/basis/aug-cc-pvtz-ri.gbs 

	 --------------------------------------------------------
	                          DF-MP2                         
	      2nd-Order Density-Fitted Moller-Plesset Theory     
	              RMP2 Wavefunction,   1 Threads             
	                                                         
	        Rob Parrish, Justin Turney, Andy Simmonett,      
	           Ed Hohenstein, and C. David Sherrill          
	 --------------------------------------------------------

   => Auxiliary Basis Set <=

  Basis Set: (AUG-CC-PVTZ AUX)
    Blend: AUG-CC-PVTZ-RI
    Number of shells: 252
    Number of basis function: 884
    Number of Cartesian functions: 1094
    Spherical Harmonics?: true
    Max angular momentum: 4

	 --------------------------------------------------------
	                 NBF =   414, NAUX =   884
	 --------------------------------------------------------
	   CLASS    FOCC     OCC    AOCC    AVIR     VIR    FVIR
	   PAIRS       0      17      17     397     397       0
	 --------------------------------------------------------


         ------------------------------------------------------------
                                     CPHF                           
                                  Rob Parrish                       
         ------------------------------------------------------------

  ==> Geometry <==

    Molecular point group: c1
    Full point group: C1

    Geometry (in Angstrom), charge = 0, multiplicity = 1:

       Center              X                  Y                   Z               Mass       
    ------------   -----------------  -----------------  -----------------  -----------------
           H         -2.279793382205    -0.069034705764     0.197776029323     1.007825032070
           H         -2.214793382205     1.644965294236    -0.140223970677     1.007825032070
           H         -1.863793382205     0.489965294236    -1.403223970677     1.007825032070
           C         -1.774793382205     0.692965294236    -0.357223970677    12.000000000000
           H          0.252206617795     1.348965294236    -0.635223970677     1.007825032070
           H         -0.185793382205     1.085965294236     1.035776029323     1.007825032070
           C         -0.285793382205     0.713965294236     0.037776029323    12.000000000000
           H         -0.251793382205    -1.349034705764     0.634776029323     1.007825032070
           H          0.187206617795    -1.086034705764    -1.035223970677     1.007825032070
           C          0.286206617795    -0.714034705764    -0.037223970677    12.000000000000
           H          2.171206617795    -1.685034705764     0.304776029323     1.007825032070
           H          1.874206617795    -0.321034705764     1.354776029323     1.007825032070
           H          2.313206617795    -0.058034705764    -0.315223970677     1.007825032070
           C          1.774206617795    -0.693034705764     0.356776029323    12.000000000000

  Nuclear repulsion =  131.822364521411430
  Reference energy  = -157.352442365568436

  ==> Basis Set <==

  Basis Set: AUG-CC-PVTZ
    Blend: AUG-CC-PVTZ
    Number of shells: 146
    Number of basis function: 414
    Number of Cartesian functions: 470
    Spherical Harmonics?: true
    Max angular momentum: 3

  ==> CGRSolver (by Rob Parrish) <==

   Number of roots    =         1
   Preconditioning    =    JACOBI
   Convergence cutoff =     1E-06
   Maximum iterations =       100

  ==> CPHFRHamiltonian (by Rob Parrish) <== 

  ==> DFJK: Density-Fitted J/K Matrices <==

    J tasked:                  Yes
    K tasked:                  Yes
    wK tasked:                  No
    OpenMP threads:              1
    Integrals threads:           1
    Memory (MB):              3576
    Algorithm:                Core
    Integral Cache:           NONE
    Schwarz Cutoff:          1E-12
    Fitting Condition:       1E-12

   => Auxiliary Basis Set <=

  Basis Set: (AUG-CC-PVTZ AUX)
    Blend: AUG-CC-PVTZ-JKFIT
    Number of shells: 260
    Number of basis function: 876
    Number of Cartesian functions: 1074
    Spherical Harmonics?: true
    Max angular momentum: 4

  ==> CPHF Iterations <==

  => Iterations <=

             Iter  Converged  Remaining    Residual
  CGR           1          0          1   8.155E-02
  CGR           2          0          1   1.303E-02
  CGR           3          0          1   3.410E-03
  CGR           4          0          1   8.041E-04
  CGR           5          0          1   1.179E-04
  CGR           6          0          1   2.102E-05
  CGR           7          0          1   3.639E-06
  CGR           8          1          0   7.954E-07

    CGRSolver converged.

  ==> DFCorrGrad: Density-Fitted Correlated Gradients <==

    OpenMP threads:              1
    Integrals threads:           1
    Memory (MB):              3576
    Schwarz Cutoff:          0E+00
    Fitting Condition:       1E-12

   => Auxiliary Basis Set <=

  Basis Set: (AUG-CC-PVTZ AUX)
    Blend: AUG-CC-PVTZ-JKFIT
    Number of shells: 260
    Number of basis function: 876
    Number of Cartesian functions: 1074
    Spherical Harmonics?: true
    Max angular momentum: 4

	-----------------------------------------------------------
	 ==================> DF-MP2 Energies <==================== 
	-----------------------------------------------------------
	 Reference Energy          =    -157.3524423655684359 [Eh]
	 Singles Energy            =      -0.0000000000000001 [Eh]
	 Same-Spin Energy          =      -0.1653746797676788 [Eh]
	 Opposite-Spin Energy      =      -0.6387051298555124 [Eh]
	 Correlation Energy        =      -0.8040798096231913 [Eh]
	 Total Energy              =    -158.1565221751916397 [Eh]
	-----------------------------------------------------------
	 ================> DF-SCS-MP2 Energies <================== 
	-----------------------------------------------------------
	 SCS Same-Spin Scale       =       0.3333333333333333 [-]
	 SCS Opposite-Spin Scale   =       1.2000000000000000 [-]
	 SCS Same-Spin Energy      =      -0.0551248932558929 [Eh]
	 SCS Opposite-Spin Energy  =      -0.7664461558266149 [Eh]
	 SCS Correlation Energy    =      -0.8215710490825080 [Eh]
	 SCS Total Energy          =    -158.1740134146509433 [Eh]
	-----------------------------------------------------------


  -Total Gradient:
     Atom            X                  Y                   Z
    ------   -----------------  -----------------  -----------------
       1        0.007795973264     0.007782177356    -0.005660023509
       2        0.008427936509    -0.008855092692    -0.000299264683
       3        0.003380596666     0.002851418362     0.011630898949
       4       -0.024794373800    -0.007265135763    -0.007856915238
       5       -0.007763781865    -0.008502473921     0.005673677777
       6       -0.003254895653    -0.005186576678    -0.011593738639
       7        0.021606104215     0.031073707259     0.010605001667
       8        0.007931746722     0.008272358626    -0.006424895404
       9        0.003378667503     0.005780048350     0.011634712644
      10       -0.021994018527    -0.031444884275    -0.010068181329
      11       -0.008406091985     0.009994488863    -0.000643058253
      12       -0.003214123353    -0.004017434892    -0.010998822539
      13       -0.007659267152    -0.006554269891     0.006191054582
      14        0.024565527452     0.006071669298     0.007809553974


*** tstop() called on gpu-2-14.local at Wed Jun 14 14:29:20 2017
Module time:
	user time   =     474.78 seconds =       7.91 minutes
	system time =       5.42 seconds =       0.09 minutes
	total time  =        533 seconds =       8.88 minutes
Total time:
	user time   =     474.79 seconds =       7.91 minutes
	system time =       5.42 seconds =       0.09 minutes
	total time  =        533 seconds =       8.88 minutes

			-----------------------------------------
			 OPTKING 2.0: for geometry optimizations 
			  - R.A. King,  Bethel University        
			-----------------------------------------

	Internal coordinates to be generated automatically.
	Detected frag 1 with atoms:  1 2 3 4 5 6 7 8 9 10 11 12 13 14
	---Fragment 1 Bond Connectivity---
	 1 : 4
	 2 : 4
	 3 : 4
	 4 : 1 2 3 7
	 5 : 7
	 6 : 7
	 7 : 4 5 6 10
	 8 : 10
	 9 : 10
	 10 : 7 8 9 14
	 11 : 14
	 12 : 14
	 13 : 14
	 14 : 10 11 12 13

	Assuming in current code that numbering for constraints corresponds to unified fragment.
	Fixed dihedral atom list: 
	    10     7     4     3
	---Fragment 1 Geometry and Gradient---
	 H          -4.3081851319       -0.1304566876        0.3737425311
	 H          -4.1853529333        3.1085339042       -0.2649849018
	 H          -3.5220590607        0.9259002207       -2.6517090077
	 C          -3.3538734348        1.3095146257       -0.6750554727
	 H           0.4766014365        2.5491749689       -1.2003993376
	 H          -0.3510986097        2.0521769959        1.9573330304
	 C          -0.5400712230        1.3491988745        0.0713863498
	 H          -0.4758205344       -2.5493061377        1.1995528511
	 H           0.3537692379       -2.0523081647       -1.9562897908
	 C           0.5408521251       -1.3493300433       -0.0703431102
	 H           4.1029858855       -3.1842541183        0.5759432273
	 H           3.5417372241       -0.6066676730        2.5601556668
	 H           4.3713269964       -0.1096697001       -0.5956869751
	 C           3.3527646108       -1.3096457945        0.6742089862
	             0.0077959733        0.0077821774       -0.0056600235
	             0.0084279365       -0.0088550927       -0.0002992647
	             0.0033805967        0.0028514184        0.0116308989
	            -0.0247943738       -0.0072651358       -0.0078569152
	            -0.0077637819       -0.0085024739        0.0056736778
	            -0.0032548957       -0.0051865767       -0.0115937386
	             0.0216061042        0.0310737073        0.0106050017
	             0.0079317467        0.0082723586       -0.0064248954
	             0.0033786675        0.0057800484        0.0116347126
	            -0.0219940185       -0.0314448843       -0.0100681813
	            -0.0084060920        0.0099944889       -0.0006430583
	            -0.0032141234       -0.0040174349       -0.0109988225
	            -0.0076592672       -0.0065542699        0.0061910546
	             0.0245655275        0.0060716693        0.0078095540

	Previous optimization step data not found.  Starting new optimization.

	---Fragment 1 Intrafragment Coordinates---
	 - Coordinate -           - BOHR/RAD -       - ANG/DEG -
	 R(1,4)           =         2.020942	       1.069436
	 R(2,4)           =         2.023854	       1.070978
	 R(3,4)           =         2.020546	       1.069227
	 R(4,7)           =         2.911397	       1.540645
	 R(5,7)           =         2.022623	       1.070326
	 R(6,7)           =         2.021555	       1.069761
	 R(7,10)          =         2.910419	       1.540128
	 R(8,10)          =         2.021436	       1.069698
	 R(9,10)          =         2.021379	       1.069668
	 R(10,14)         =         2.909087	       1.539422
	 R(11,14)         =         2.021545	       1.069756
	 R(12,14)         =         2.021555	       1.069761
	 R(13,14)         =         2.022387	       1.070201
	 B(1,4,2)         =         1.911567	     109.524726
	 B(1,4,3)         =         1.910394	     109.457528
	 B(1,4,7)         =         1.910321	     109.453324
	 B(2,4,3)         =         1.910052	     109.437897
	 B(2,4,7)         =         1.910282	     109.451121
	 B(3,4,7)         =         1.911183	     109.502742
	 B(4,7,5)         =         1.909937	     109.431343
	 B(4,7,6)         =         1.911630	     109.528316
	 B(4,7,10)        =         1.911154	     109.501062
	 B(5,7,6)         =         1.910605	     109.469614
	 B(5,7,10)        =         1.910047	     109.437654
	 B(6,7,10)        =         1.910425	     109.459295
	 B(7,10,8)        =         1.910303	     109.452301
	 B(7,10,9)        =         1.910824	     109.482155
	 B(7,10,14)       =         1.911213	     109.504437
	 B(8,10,9)        =         1.910417	     109.458846
	 B(8,10,14)       =         1.910766	     109.478806
	 B(9,10,14)       =         1.910276	     109.450772
	 B(10,14,11)      =         1.910943	     109.488965
	 B(10,14,12)      =         1.911204	     109.503926
	 B(10,14,13)      =         1.911557	     109.524173
	 B(11,14,12)      =         1.910410	     109.458432
	 B(11,14,13)      =         1.910054	     109.438058
	 B(12,14,13)      =         1.909629	     109.413709
	 D(1,4,7,5)       =         2.966453	     169.965222
	 D(1,4,7,6)       =        -1.222188	     -70.026226
	 D(1,4,7,10)      =         0.872882	      50.012481
	 D(2,4,7,5)       =        -1.221600	     -69.992518
	 D(2,4,7,6)       =         0.872944	      50.016034
	 D(2,4,7,10)      =         2.968015	     170.054741
	 D(3,4,7,5)       =         0.872205	      49.973655
	 D(3,4,7,6)       =         2.966749	     169.982207
	 D(3,4,7,10)      =        -1.221365	     -69.979085
	 D(4,7,10,8)      =        -1.047368	     -60.009777
	 D(4,7,10,9)      =         1.046677	      59.970178
	 D(4,7,10,14)     =         3.141107	     179.972182
	 D(5,7,10,8)      =        -3.140871	    -179.958653
	 D(5,7,10,9)      =        -1.046826	     -59.978698
	 D(5,7,10,14)     =         1.047604	      60.023306
	 D(6,7,10,8)      =         1.048439	      60.071149
	 D(6,7,10,9)      =        -3.140701	    -179.948896
	 D(6,7,10,14)     =        -1.046271	     -59.946893
	 D(7,10,14,11)    =         3.141408	     179.989448
	 D(7,10,14,12)    =         1.046747	      59.974196
	 D(7,10,14,13)    =        -1.047335	     -60.007849
	 D(8,10,14,11)    =         1.046982	      59.987626
	 D(8,10,14,12)    =        -1.047680	     -60.027626
	 D(8,10,14,13)    =         3.141424	     179.990329
	 D(9,10,14,11)    =        -1.047012	     -59.989345
	 D(9,10,14,12)    =         3.141512	     179.995403
	 D(9,10,14,13)    =         1.047431	      60.013359

	Current energy   :      -158.1565221752

	Generating empirical Hessian (Schlegel '84) for each fragment.
	Adding user-defined constraint: Fragment 1; Coordinate 46:
		Value =    -1.221365; Fixed value    =    -1.221730
		Force =    -0.000183; Force constant =     0.500000
	Removing off-diagonal coupling between coordinate 46 and others.
	Taking RFO optimization step.
	Going to follow RFO solution 1.
	Using RFO vector 1.

	Determining step-restricting scale parameter for RS-RFO.
	Maximum step size allowed    0.10000

	 Iter      |step|        alpha        rfo_root  
	------------------------------------------------
	    0     0.18315       1.00000           1
	    1     0.14406       7.07139           1
	    2     0.11680      19.03931           1
	    3     0.10359      30.30207           1
	    4     0.10022      34.14535           1
	    5     0.10000      34.40931           1
	------------------------------------------------
	Norm of target step-size    0.10000
	Projected energy change by RFO approximation:        -0.0038032584

	Back-transformation to cartesian coordinates...
	Could not converge backtransformation.
	Using first guess instead.

	--- Internal Coordinate Step in ANG or DEG, aJ/ANG or AJ/DEG ---
	 ---------------------------------------------------------------------------
	   Coordinate                Previous        Force       Change         New 
	   ----------                --------       ------       ------       ------
	    1 R(1,4)          =      1.069436     0.100213     0.012390     1.081826
	    2 R(2,4)          =      1.070978     0.093876     0.011616     1.082594
	    3 R(3,4)          =      1.069227     0.100521     0.012390     1.081616
	    4 R(4,7)          =      1.540645    -0.046557    -0.006818     1.533827
	    5 R(5,7)          =      1.070326     0.103102     0.012699     1.083025
	    6 R(6,7)          =      1.069761     0.106476     0.013095     1.082856
	    7 R(7,10)         =      1.540128    -0.075375    -0.010959     1.529168
	    8 R(8,10)         =      1.069698     0.106577     0.013105     1.082803
	    9 R(9,10)         =      1.069668     0.108570     0.013351     1.083018
	   10 R(10,14)        =      1.539422    -0.047687    -0.006970     1.532452
	   11 R(11,14)        =      1.069756     0.101801     0.012558     1.082314
	   12 R(12,14)        =      1.069761     0.098523     0.012164     1.081924
	   13 R(13,14)        =      1.070201     0.095849     0.011846     1.082047
	   14 B(1,4,2)        =    109.524726    -0.000258    -0.607559   108.917167
	   15 B(1,4,3)        =    109.457528    -0.000167    -0.410720   109.046807
	   16 B(1,4,7)        =    109.453324     0.000136     0.330767   109.784091
	   17 B(2,4,3)        =    109.437897    -0.000269    -0.667735   108.770162
	   18 B(2,4,7)        =    109.451121     0.000415     1.006154   110.457275
	   19 B(3,4,7)        =    109.502742     0.000143     0.332286   109.835028
	   20 B(4,7,5)        =    109.431343    -0.000120    -0.145595   109.285748
	   21 B(4,7,6)        =    109.528316    -0.000116    -0.138735   109.389581
	   22 B(4,7,10)       =    109.501062     0.000642     1.399584   110.900646
	   23 B(5,7,6)        =    109.469614     0.000008    -0.247152   109.222462
	   24 B(5,7,10)       =    109.437654    -0.000205    -0.410578   109.027076
	   25 B(6,7,10)       =    109.459295    -0.000209    -0.468212   108.991082
	   26 B(7,10,8)       =    109.452301    -0.000212    -0.457616   108.994685
	   27 B(7,10,9)       =    109.482155    -0.000198    -0.414394   109.067762
	   28 B(7,10,14)      =    109.504437     0.000637     1.388145   110.892581
	   29 B(8,10,9)       =    109.458846     0.000011    -0.235441   109.223405
	   30 B(8,10,14)      =    109.478806    -0.000115    -0.138027   109.340779
	   31 B(9,10,14)      =    109.450772    -0.000122    -0.153063   109.297710
	   32 B(10,14,11)     =    109.488965     0.000412     1.018775   110.507739
	   33 B(10,14,12)     =    109.503926     0.000119     0.270104   109.774030
	   34 B(10,14,13)     =    109.524173     0.000124     0.284678   109.808851
	   35 B(11,14,12)     =    109.458432    -0.000245    -0.573108   108.885324
	   36 B(11,14,13)     =    109.438058    -0.000246    -0.574781   108.863277
	   37 B(12,14,13)     =    109.413709    -0.000165    -0.443360   108.970349
	   38 D(1,4,7,5)      =    169.965222     0.000016     0.256085   170.221307
	   39 D(1,4,7,6)      =    -70.026226    -0.000015    -0.218639   -70.244865
	   40 D(1,4,7,10)     =     50.012481     0.000000    -0.013037    49.999444
	   41 D(2,4,7,5)      =    -69.992518     0.000021     0.340445   -69.652073
	   42 D(2,4,7,6)      =     50.016034    -0.000010    -0.134279    49.881755
	   43 D(2,4,7,10)     =    170.054741     0.000005     0.071323   170.126064
	   44 D(3,4,7,5)      =     49.973655     0.000023     0.351117    50.324773
	   45 D(3,4,7,6)      =    169.982207    -0.000007    -0.123607   169.858601
	   46 D(3,4,7,10)     =    -69.979085     0.000008     0.081995   -69.897090
	   47 D(4,7,10,8)     =    -60.009777     0.000026     0.383491   -59.626286
	   48 D(4,7,10,9)     =     59.970178    -0.000029    -0.426045    59.544133
	   49 D(4,7,10,14)    =    179.972182    -0.000002    -0.016368   179.955813
	   50 D(5,7,10,8)     =   -179.958653    -0.000002    -0.043278  -180.001931
	   51 D(5,7,10,9)     =    -59.978698    -0.000056    -0.852815   -60.831512
	   52 D(5,7,10,14)    =     60.023306    -0.000029    -0.443138    59.580168
	   53 D(6,7,10,8)     =     60.071149     0.000054     0.783631    60.854780
	   54 D(6,7,10,9)     =   -179.948896    -0.000001    -0.025905  -179.974802
	   55 D(6,7,10,14)    =    -59.946893     0.000027     0.383771   -59.563121
	   56 D(7,10,14,11)   =    179.989448    -0.000001    -0.018072   179.971376
	   57 D(7,10,14,12)   =     59.974196    -0.000007    -0.115403    59.858793
	   58 D(7,10,14,13)   =    -60.007849     0.000005     0.086766   -59.921082
	   59 D(8,10,14,11)   =     59.987626    -0.000015    -0.228399    59.759227
	   60 D(8,10,14,12)   =    -60.027626    -0.000021    -0.325729   -60.353355
	   61 D(8,10,14,13)   =    179.990329    -0.000009    -0.123560   179.866769
	   62 D(9,10,14,11)   =    -59.989345     0.000015     0.235736   -59.753608
	   63 D(9,10,14,12)   =    179.995403     0.000010     0.138406   180.133809
	   64 D(9,10,14,13)   =     60.013359     0.000022     0.340575    60.353934
	 ---------------------------------------------------------------------------
	Successfully symmetrized geometry.
	 Forces used to impose fixed constraints are not included.
	  Forces zeroed: 46 

  ==> Convergence Check <==

  Measures of convergence in internal coordinates in au.
  Criteria marked as inactive (o), active & met (*), and active & unmet ( ).
  --------------------------------------------------------------------------------------------- ~
   Step     Total Energy     Delta E     MAX Force     RMS Force      MAX Disp      RMS Disp    ~
  --------------------------------------------------------------------------------------------- ~
    Convergence Criteria    1.00e-06 *    3.00e-04 *             o    1.20e-03 *             o  ~
  --------------------------------------------------------------------------------------------- ~
      1    -158.15652218   -1.58e+02      1.32e-02      5.61e-03 o    2.52e-02      1.25e-02 o  ~
  ---------------------------------------------------------------------------------------------

	Writing optimization data to binary file.
	Structure for next step:
	Cartesian Geometry (in Angstrom)
	    H    -2.2992269045  -0.0684152912   0.2004509648
	    H    -2.2293871065   1.6577210638  -0.1420797079
	    H    -1.8766864591   0.4949497941  -1.4144906632
	    C    -1.7770509561   0.6978702899  -0.3567619108
	    H     0.2520270636   1.3483473601  -0.6441578984
	    H    -0.1902662762   1.0814648834   1.0443040566
	    C    -0.2939647219   0.7046490227   0.0344358997
	    H    -0.2516015048  -1.3481565687   0.6450631609
	    H     0.1919374352  -1.0830086534  -1.0433047657
	    C     0.2946116056  -0.7050700561  -0.0335774717
	    H     2.1866248910  -1.6983355768   0.3064893784
	    H     1.8879087949  -0.3236399850   1.3652523598
	    H     2.3303304967  -0.0589446928  -0.3190042343
	    C     1.7766362911  -0.6979174705   0.3562452422
			--------------------------
			 OPTKING Finished Execution 
			--------------------------

    Structure for next step:
    Molecular point group: c1
    Full point group: C1

    Geometry (in Angstrom), charge = 0, multiplicity = 1:

    H           -2.299303698207    -0.068352949091     0.200405987476
    H           -2.229463900233     1.657783405985    -0.142124685178
    H           -1.876763252823     0.495012136262    -1.414535640510
    C           -1.777127749899     0.697932632023    -0.356806888096
    H            0.251950269861     1.348409702211    -0.644202875702
    H           -0.190343069922     1.081527225574     1.044259079330
    C           -0.294041515638     0.704711364860     0.034390922355
    H           -0.251678298538    -1.348094226581     0.645018183584
    H            0.191860641477    -1.082946311288    -1.043349742987
    C            0.294534811836    -0.705007713994    -0.033622448992
    H            2.186548097218    -1.698273234682     0.306444401140
    H            1.887832001136    -0.323577642855     1.365207382497
    H            2.330253702946    -0.058882350680    -0.319049211564
    C            1.776559497309    -0.697855128302     0.356200264874

gradient() will perform analytic gradient computation.

*** tstart() called on gpu-2-14.local
*** at Wed Jun 14 14:29:20 2017

    SCF Algorithm Type (re)set to DF.

*** tstart() called on gpu-2-14.local
*** at Wed Jun 14 14:29:20 2017

   => Loading Basis Set <=

    Name: AUG-CC-PVTZ
    Role: ORBITAL
    Keyword: BASIS
    atoms 1-3, 5-6, 8-9, 11-13 entry H          line    34 file /cbio/jclab/home/chayas/anaconda/envs/py35/share/psi4/basis/aug-cc-pvtz.gbs 
    atoms 4, 7, 10, 14         entry C          line   221 file /cbio/jclab/home/chayas/anaconda/envs/py35/share/psi4/basis/aug-cc-pvtz.gbs 


         ---------------------------------------------------------
                                   SCF
            by Justin Turney, Rob Parrish, and Andy Simmonett
                              RHF Reference
                        1 Threads,   4768 MiB Core
         ---------------------------------------------------------

  ==> Geometry <==

    Molecular point group: c1
    Full point group: C1

    Geometry (in Angstrom), charge = 0, multiplicity = 1:

       Center              X                  Y                   Z               Mass       
    ------------   -----------------  -----------------  -----------------  -----------------
           H         -2.299303698207    -0.068352949091     0.200405987476     1.007825032070
           H         -2.229463900233     1.657783405985    -0.142124685178     1.007825032070
           H         -1.876763252823     0.495012136262    -1.414535640510     1.007825032070
           C         -1.777127749899     0.697932632023    -0.356806888096    12.000000000000
           H          0.251950269861     1.348409702211    -0.644202875702     1.007825032070
           H         -0.190343069922     1.081527225574     1.044259079330     1.007825032070
           C         -0.294041515638     0.704711364860     0.034390922355    12.000000000000
           H         -0.251678298538    -1.348094226581     0.645018183584     1.007825032070
           H          0.191860641477    -1.082946311288    -1.043349742987     1.007825032070
           C          0.294534811836    -0.705007713994    -0.033622448992    12.000000000000
           H          2.186548097218    -1.698273234682     0.306444401140     1.007825032070
           H          1.887832001136    -0.323577642855     1.365207382497     1.007825032070
           H          2.330253702946    -0.058882350680    -0.319049211564     1.007825032070
           C          1.776559497309    -0.697855128302     0.356200264874    12.000000000000

  Running in c1 symmetry.

  Rotational constants: A =      0.77658  B =      0.12366  C =      0.11587 [cm^-1]
  Rotational constants: A =  23281.15779  B =   3707.20813  C =   3473.55686 [MHz]
  Nuclear repulsion =  131.459907652773779

  Charge       = 0
  Multiplicity = 1
  Electrons    = 34
  Nalpha       = 17
  Nbeta        = 17

  ==> Algorithm <==

  SCF Algorithm Type is DF.
  DIIS enabled.
  MOM disabled.
  Fractional occupation disabled.
  Guess Type is READ.
  Energy threshold   = 1.00e-10
  Density threshold  = 1.00e-10
  Integral threshold = 0.00e+00

  ==> Primary Basis <==

  Basis Set: AUG-CC-PVTZ
    Blend: AUG-CC-PVTZ
    Number of shells: 146
    Number of basis function: 414
    Number of Cartesian functions: 470
    Spherical Harmonics?: true
    Max angular momentum: 3

   => Loading Basis Set <=

    Name: (AUG-CC-PVTZ AUX)
    Role: JKFIT
    Keyword: DF_BASIS_SCF
    atoms 1-3, 5-6, 8-9, 11-13 entry H          line    69 file /cbio/jclab/home/chayas/anaconda/envs/py35/share/psi4/basis/aug-cc-pvtz-jkfit.gbs 
    atoms 4, 7, 10, 14         entry C          line   161 file /cbio/jclab/home/chayas/anaconda/envs/py35/share/psi4/basis/aug-cc-pvtz-jkfit.gbs 

  Reading orbitals from file 180, no projection.

  ==> Pre-Iterations <==

   -------------------------------------------------------
    Irrep   Nso     Nmo     Nalpha   Nbeta   Ndocc  Nsocc
   -------------------------------------------------------
     A        414     414       0       0       0       0
   -------------------------------------------------------
    Total     414     414      17      17      17       0
   -------------------------------------------------------

  ==> Integral Setup <==

  ==> DFJK: Density-Fitted J/K Matrices <==

    J tasked:                  Yes
    K tasked:                  Yes
    wK tasked:                  No
    OpenMP threads:              1
    Integrals threads:           1
    Memory (MB):              3576
    Algorithm:                Core
    Integral Cache:           NONE
    Schwarz Cutoff:          1E-12
    Fitting Condition:       1E-12

   => Auxiliary Basis Set <=

  Basis Set: (AUG-CC-PVTZ AUX)
    Blend: AUG-CC-PVTZ-JKFIT
    Number of shells: 260
    Number of basis function: 876
    Number of Cartesian functions: 1074
    Spherical Harmonics?: true
    Max angular momentum: 4

  Minimum eigenvalue in the overlap matrix is 8.2377775992E-06.
  Using Symmetric Orthogonalization.

  SCF Guess: Orbitals guess was supplied from a previous computation.

  ==> Iterations <==

                           Total Energy        Delta E     RMS |[F,P]|

   @DF-RHF iter   0:  -157.27778480983670   -1.57278e+02   1.26027e-04 
   @DF-RHF iter   1:  -157.35474622769428   -7.69614e-02   5.21442e-05 
   @DF-RHF iter   2:  -157.35502402399413   -2.77796e-04   2.69839e-05 DIIS
   @DF-RHF iter   3:  -157.35508298188344   -5.89579e-05   2.89400e-06 DIIS
   @DF-RHF iter   4:  -157.35508445500960   -1.47313e-06   7.75926e-07 DIIS
   @DF-RHF iter   5:  -157.35508454415103   -8.91414e-08   2.58120e-07 DIIS
   @DF-RHF iter   6:  -157.35508455423235   -1.00813e-08   4.21387e-08 DIIS
   @DF-RHF iter   7:  -157.35508455463105   -3.98700e-10   6.05451e-09 DIIS
   @DF-RHF iter   8:  -157.35508455464111   -1.00613e-11   1.03840e-09 DIIS
   @DF-RHF iter   9:  -157.35508455464108    2.84217e-14   2.33997e-10 DIIS
   @DF-RHF iter  10:  -157.35508455464176   -6.82121e-13   4.72177e-11 DIIS

  ==> Post-Iterations <==

    Orbital Energies (a.u.)
    -----------------------

    Doubly Occupied:                                                      

       1A    -11.210303     2A    -11.209691     3A    -11.203783  
       4A    -11.203773     5A     -1.071385     6A     -0.980004  
       7A     -0.859955     8A     -0.789119     9A     -0.645425  
      10A     -0.584994    11A     -0.572147    12A     -0.571883  
      13A     -0.512895    14A     -0.499756    15A     -0.470225  
      16A     -0.465442    17A     -0.449298  

    Virtual:                                                              

      18A      0.032277    19A      0.036926    20A      0.039682  
      21A      0.040907    22A      0.056580    23A      0.058481  
      24A      0.059594    25A      0.061344    26A      0.081876  
      27A      0.084998    28A      0.096708    29A      0.112291  
      30A      0.123154    31A      0.130776    32A      0.135485  
      33A      0.141679    34A      0.143750    35A      0.146782  
      36A      0.148215    37A      0.159556    38A      0.159726  
      39A      0.168188    40A      0.170540    41A      0.202307  
      42A      0.210311    43A      0.211630    44A      0.229227  
      45A      0.248334    46A      0.249606    47A      0.250495  
      48A      0.268980    49A      0.273123    50A      0.281036  
      51A      0.281914    52A      0.316237    53A      0.318576  
      54A      0.331194    55A      0.337274    56A      0.339347  
      57A      0.347455    58A      0.356872    59A      0.357404  
      60A      0.359127    61A      0.373472    62A      0.373989  
      63A      0.384229    64A      0.388181    65A      0.390268  
      66A      0.391738    67A      0.395295    68A      0.402116  
      69A      0.406646    70A      0.413631    71A      0.424126  
      72A      0.429202    73A      0.442739    74A      0.445886  
      75A      0.454037    76A      0.459744    77A      0.463730  
      78A      0.467549    79A      0.473795    80A      0.475740  
      81A      0.483644    82A      0.490019    83A      0.497817  
      84A      0.505378    85A      0.505605    86A      0.510203  
      87A      0.522465    88A      0.526282    89A      0.528440  
      90A      0.537339    91A      0.547058    92A      0.563281  
      93A      0.565162    94A      0.575016    95A      0.587077  
      96A      0.595903    97A      0.598983    98A      0.612540  
      99A      0.625082   100A      0.635004   101A      0.639447  
     102A      0.655832   103A      0.681990   104A      0.688411  
     105A      0.702645   106A      0.703370   107A      0.764071  
     108A      0.777855   109A      0.796390   110A      0.815633  
     111A      0.823015   112A      0.826891   113A      0.836643  
     114A      0.842528   115A      0.845660   116A      0.857257  
     117A      0.861569   118A      0.863770   119A      0.885198  
     120A      0.890020   121A      0.896280   122A      0.900314  
     123A      0.907985   124A      0.919590   125A      0.922117  
     126A      0.931436   127A      0.938105   128A      0.943619  
     129A      0.949005   130A      0.957979   131A      0.963900  
     132A      0.967198   133A      0.982434   134A      0.989525  
     135A      0.995435   136A      1.008158   137A      1.011424  
     138A      1.030291   139A      1.047592   140A      1.055740  
     141A      1.069649   142A      1.077792   143A      1.094619  
     144A      1.102904   145A      1.109120   146A      1.125242  
     147A      1.128913   148A      1.132184   149A      1.137384  
     150A      1.158340   151A      1.162409   152A      1.166071  
     153A      1.170301   154A      1.194388   155A      1.201241  
     156A      1.213772   157A      1.222857   158A      1.241277  
     159A      1.250661   160A      1.252679   161A      1.257334  
     162A      1.262215   163A      1.272026   164A      1.277674  
     165A      1.286137   166A      1.300923   167A      1.310076  
     168A      1.326956   169A      1.338041   170A      1.351775  
     171A      1.357837   172A      1.372549   173A      1.393301  
     174A      1.424878   175A      1.429097   176A      1.435056  
     177A      1.458780   178A      1.482802   179A      1.494480  
     180A      1.499472   181A      1.526502   182A      1.531024  
     183A      1.549062   184A      1.556873   185A      1.573878  
     186A      1.583610   187A      1.594737   188A      1.613851  
     189A      1.626020   190A      1.633259   191A      1.641330  
     192A      1.643562   193A      1.681508   194A      1.685550  
     195A      1.698924   196A      1.699727   197A      1.708121  
     198A      1.711220   199A      1.733882   200A      1.741089  
     201A      1.747815   202A      1.758618   203A      1.760283  
     204A      1.774785   205A      1.780368   206A      1.785402  
     207A      1.791702   208A      1.797558   209A      1.826169  
     210A      1.847488   211A      1.858882   212A      1.867911  
     213A      1.884905   214A      1.894623   215A      1.917145  
     216A      1.920703   217A      1.959379   218A      1.970486  
     219A      1.973832   220A      1.981432   221A      1.988145  
     222A      1.992157   223A      2.027029   224A      2.043202  
     225A      2.054388   226A      2.065620   227A      2.093787  
     228A      2.100673   229A      2.138772   230A      2.146185  
     231A      2.155232   232A      2.177647   233A      2.188982  
     234A      2.209383   235A      2.241570   236A      2.251554  
     237A      2.254412   238A      2.285003   239A      2.299690  
     240A      2.311439   241A      2.324163   242A      2.327391  
     243A      2.331827   244A      2.342322   245A      2.373494  
     246A      2.379746   247A      2.430523   248A      2.452612  
     249A      2.472765   250A      2.474725   251A      2.506156  
     252A      2.537106   253A      2.605396   254A      2.613306  
     255A      2.651339   256A      2.677298   257A      2.701930  
     258A      2.897464   259A      2.910785   260A      3.026778  
     261A      3.240139   262A      3.252938   263A      3.267718  
     264A      3.388736   265A      3.409019   266A      3.426442  
     267A      3.455897   268A      3.465174   269A      3.474884  
     270A      3.482265   271A      3.516423   272A      3.533484  
     273A      3.571809   274A      3.579859   275A      3.593925  
     276A      3.602818   277A      3.632714   278A      3.657993  
     279A      3.684587   280A      3.684831   281A      3.717779  
     282A      3.723339   283A      3.730067   284A      3.739310  
     285A      3.749865   286A      3.761166   287A      3.789850  
     288A      3.791987   289A      3.809281   290A      3.816042  
     291A      3.847275   292A      3.856552   293A      3.878640  
     294A      3.886778   295A      3.911872   296A      3.916820  
     297A      3.927122   298A      3.939079   299A      3.964337  
     300A      3.991879   301A      3.997958   302A      4.001410  
     303A      4.014507   304A      4.018947   305A      4.039944  
     306A      4.049494   307A      4.057860   308A      4.063527  
     309A      4.133443   310A      4.179400   311A      4.201369  
     312A      4.210998   313A      4.218976   314A      4.231800  
     315A      4.239775   316A      4.260831   317A      4.269194  
     318A      4.280140   319A      4.293191   320A      4.311690  
     321A      4.340235   322A      4.359735   323A      4.360907  
     324A      4.397663   325A      4.411746   326A      4.418467  
     327A      4.525627   328A      4.535673   329A      4.564813  
     330A      4.580169   331A      4.624464   332A      4.647522  
     333A      4.672189   334A      4.691762   335A      4.710186  
     336A      4.724323   337A      4.725514   338A      4.743957  
     339A      4.757061   340A      4.781015   341A      4.790623  
     342A      4.834940   343A      4.854438   344A      4.867698  
     345A      4.873023   346A      4.887774   347A      4.909977  
     348A      4.938134   349A      4.951523   350A      4.991856  
     351A      5.031637   352A      5.046289   353A      5.051900  
     354A      5.077615   355A      5.111930   356A      5.163604  
     357A      5.177722   358A      5.192540   359A      5.201851  
     360A      5.221199   361A      5.235033   362A      5.243770  
     363A      5.248521   364A      5.273926   365A      5.292838  
     366A      5.342568   367A      5.383359   368A      5.395218  
     369A      5.412430   370A      5.419829   371A      5.436378  
     372A      5.451858   373A      5.462385   374A      5.479695  
     375A      5.546095   376A      5.568398   377A      5.595365  
     378A      5.609211   379A      5.657400   380A      5.674228  
     381A      5.695944   382A      5.730950   383A      5.732890  
     384A      5.759613   385A      5.816877   386A      5.826875  
     387A      5.864378   388A      5.890235   389A      5.914057  
     390A      6.002100   391A      6.049280   392A      6.111170  
     393A      6.130635   394A      6.150953   395A      6.219095  
     396A      6.223389   397A      6.238104   398A      6.257035  
     399A      6.272878   400A      6.328548   401A      6.383835  
     402A      6.388292   403A      6.544332   404A      6.550914  
     405A      6.739775   406A      6.778319   407A      6.821953  
     408A      6.836886   409A      6.858261   410A      6.987638  
     411A     17.928480   412A     18.191532   413A     18.257722  
     414A     18.847101  

    Final Occupation by Irrep:
              A 
    DOCC [    17 ]

  Energy converged.

  @DF-RHF Final Energy:  -157.35508455464176

   => Energetics <=

    Nuclear Repulsion Energy =            131.4599076527737793
    One-Electron Energy =                -471.0298265488847278
    Two-Electron Energy =                 182.2148343414691851
    DFT Exchange-Correlation Energy =       0.0000000000000000
    Empirical Dispersion Energy =           0.0000000000000000
    PCM Polarization Energy =               0.0000000000000000
    EFP Energy =                            0.0000000000000000
    Total Energy =                       -157.3550845546417634



Properties will be evaluated at   0.000000,   0.000000,   0.000000 Bohr

Properties computed using the SCF density matrix

  Nuclear Dipole Moment: (a.u.)
     X:     0.0008      Y:     0.0024      Z:    -0.0018

  Electronic Dipole Moment: (a.u.)
     X:    -0.0005      Y:    -0.0024      Z:     0.0008

  Dipole Moment: (a.u.)
     X:     0.0003      Y:     0.0000      Z:    -0.0010     Total:     0.0010

  Dipole Moment: (Debye)
     X:     0.0009      Y:     0.0001      Z:    -0.0025     Total:     0.0026


*** tstop() called on gpu-2-14.local at Wed Jun 14 14:30:52 2017
Module time:
	user time   =      84.76 seconds =       1.41 minutes
	system time =       0.63 seconds =       0.01 minutes
	total time  =         92 seconds =       1.53 minutes
Total time:
	user time   =     559.63 seconds =       9.33 minutes
	system time =       6.15 seconds =       0.10 minutes
	total time  =        625 seconds =      10.42 minutes

  //>>>>>>>>>>>>>>>>>>>>>>>>>>>>>>>>>>>//
  //               DFMP2               //
  //<<<<<<<<<<<<<<<<<<<<<<<<<<<<<<<<<<<//

   => Loading Basis Set <=

    Name: (AUG-CC-PVTZ AUX)
    Role: RIFIT
    Keyword: DF_BASIS_MP2
    atoms 1-3, 5-6, 8-9, 11-13 entry H          line    29 file /cbio/jclab/home/chayas/anaconda/envs/py35/share/psi4/basis/aug-cc-pvtz-ri.gbs 
    atoms 4, 7, 10, 14         entry C          line   147 file /cbio/jclab/home/chayas/anaconda/envs/py35/share/psi4/basis/aug-cc-pvtz-ri.gbs 

	 --------------------------------------------------------
	                          DF-MP2                         
	      2nd-Order Density-Fitted Moller-Plesset Theory     
	              RMP2 Wavefunction,   1 Threads             
	                                                         
	        Rob Parrish, Justin Turney, Andy Simmonett,      
	           Ed Hohenstein, and C. David Sherrill          
	 --------------------------------------------------------

   => Auxiliary Basis Set <=

  Basis Set: (AUG-CC-PVTZ AUX)
    Blend: AUG-CC-PVTZ-RI
    Number of shells: 252
    Number of basis function: 884
    Number of Cartesian functions: 1094
    Spherical Harmonics?: true
    Max angular momentum: 4

	 --------------------------------------------------------
	                 NBF =   414, NAUX =   884
	 --------------------------------------------------------
	   CLASS    FOCC     OCC    AOCC    AVIR     VIR    FVIR
	   PAIRS       0      17      17     397     397       0
	 --------------------------------------------------------


         ------------------------------------------------------------
                                     CPHF                           
                                  Rob Parrish                       
         ------------------------------------------------------------

  ==> Geometry <==

    Molecular point group: c1
    Full point group: C1

    Geometry (in Angstrom), charge = 0, multiplicity = 1:

       Center              X                  Y                   Z               Mass       
    ------------   -----------------  -----------------  -----------------  -----------------
           H         -2.299303698207    -0.068352949091     0.200405987476     1.007825032070
           H         -2.229463900233     1.657783405985    -0.142124685178     1.007825032070
           H         -1.876763252823     0.495012136262    -1.414535640510     1.007825032070
           C         -1.777127749899     0.697932632023    -0.356806888096    12.000000000000
           H          0.251950269861     1.348409702211    -0.644202875702     1.007825032070
           H         -0.190343069922     1.081527225574     1.044259079330     1.007825032070
           C         -0.294041515638     0.704711364860     0.034390922355    12.000000000000
           H         -0.251678298538    -1.348094226581     0.645018183584     1.007825032070
           H          0.191860641477    -1.082946311288    -1.043349742987     1.007825032070
           C          0.294534811836    -0.705007713994    -0.033622448992    12.000000000000
           H          2.186548097218    -1.698273234682     0.306444401140     1.007825032070
           H          1.887832001136    -0.323577642855     1.365207382497     1.007825032070
           H          2.330253702946    -0.058882350680    -0.319049211564     1.007825032070
           C          1.776559497309    -0.697855128302     0.356200264874    12.000000000000

  Nuclear repulsion =  131.459907652773779
  Reference energy  = -157.355084554641763

  ==> Basis Set <==

  Basis Set: AUG-CC-PVTZ
    Blend: AUG-CC-PVTZ
    Number of shells: 146
    Number of basis function: 414
    Number of Cartesian functions: 470
    Spherical Harmonics?: true
    Max angular momentum: 3

  ==> CGRSolver (by Rob Parrish) <==

   Number of roots    =         1
   Preconditioning    =    JACOBI
   Convergence cutoff =     1E-06
   Maximum iterations =       100

  ==> CPHFRHamiltonian (by Rob Parrish) <== 

  ==> DFJK: Density-Fitted J/K Matrices <==

    J tasked:                  Yes
    K tasked:                  Yes
    wK tasked:                  No
    OpenMP threads:              1
    Integrals threads:           1
    Memory (MB):              3576
    Algorithm:                Core
    Integral Cache:           NONE
    Schwarz Cutoff:          1E-12
    Fitting Condition:       1E-12

   => Auxiliary Basis Set <=

  Basis Set: (AUG-CC-PVTZ AUX)
    Blend: AUG-CC-PVTZ-JKFIT
    Number of shells: 260
    Number of basis function: 876
    Number of Cartesian functions: 1074
    Spherical Harmonics?: true
    Max angular momentum: 4

  ==> CPHF Iterations <==

  => Iterations <=

             Iter  Converged  Remaining    Residual
  CGR           1          0          1   8.306E-02
  CGR           2          0          1   1.322E-02
  CGR           3          0          1   3.487E-03
  CGR           4          0          1   8.135E-04
  CGR           5          0          1   1.197E-04
  CGR           6          0          1   2.164E-05
  CGR           7          0          1   3.712E-06
  CGR           8          1          0   8.228E-07

    CGRSolver converged.

  ==> DFCorrGrad: Density-Fitted Correlated Gradients <==

    OpenMP threads:              1
    Integrals threads:           1
    Memory (MB):              3576
    Schwarz Cutoff:          0E+00
    Fitting Condition:       1E-12

   => Auxiliary Basis Set <=

  Basis Set: (AUG-CC-PVTZ AUX)
    Blend: AUG-CC-PVTZ-JKFIT
    Number of shells: 260
    Number of basis function: 876
    Number of Cartesian functions: 1074
    Spherical Harmonics?: true
    Max angular momentum: 4

	-----------------------------------------------------------
	 ==================> DF-MP2 Energies <==================== 
	-----------------------------------------------------------
	 Reference Energy          =    -157.3550845546417634 [Eh]
	 Singles Energy            =      -0.0000000000000000 [Eh]
	 Same-Spin Energy          =      -0.1653414693327077 [Eh]
	 Opposite-Spin Energy      =      -0.6391348576683502 [Eh]
	 Correlation Energy        =      -0.8044763270010579 [Eh]
	 Total Energy              =    -158.1595608816428182 [Eh]
	-----------------------------------------------------------
	 ================> DF-SCS-MP2 Energies <================== 
	-----------------------------------------------------------
	 SCS Same-Spin Scale       =       0.3333333333333333 [-]
	 SCS Opposite-Spin Scale   =       1.2000000000000000 [-]
	 SCS Same-Spin Energy      =      -0.0551138231109026 [Eh]
	 SCS Opposite-Spin Energy  =      -0.7669618292020203 [Eh]
	 SCS Correlation Energy    =      -0.8220756523129228 [Eh]
	 SCS Total Energy          =    -158.1771602069546816 [Eh]
	-----------------------------------------------------------


  -Total Gradient:
     Atom            X                  Y                   Z
    ------   -----------------  -----------------  -----------------
       1        0.003425973253     0.002103866073    -0.001329075494
       2        0.003288398215    -0.002164803723     0.000614439098
       3        0.002231644851     0.001590560015     0.003361499334
       4       -0.013432375837    -0.003960702161    -0.003995813625
       5       -0.003324003181    -0.004207138399    -0.000046434473
       6       -0.002387332275    -0.003002984131    -0.003231673253
       7        0.012582027078     0.015784749512     0.005438133406
       8        0.003342727665     0.003845731204    -0.000491820316
       9        0.002552434251     0.003501473885     0.003093933815
      10       -0.012667439542    -0.015812476011    -0.005005908186
      11       -0.003319858260     0.002337174415    -0.000519361865
      12       -0.002125719581    -0.001367203292    -0.003299317949
      13       -0.003302648151    -0.002035261361     0.001252272154
      14        0.013136171515     0.003387013977     0.004159127352


*** tstop() called on gpu-2-14.local at Wed Jun 14 14:37:58 2017
Module time:
	user time   =     465.86 seconds =       7.76 minutes
	system time =       5.41 seconds =       0.09 minutes
	total time  =        518 seconds =       8.63 minutes
Total time:
	user time   =     940.73 seconds =      15.68 minutes
	system time =      10.93 seconds =       0.18 minutes
	total time  =       1051 seconds =      17.52 minutes

			-----------------------------------------
			 OPTKING 2.0: for geometry optimizations 
			  - R.A. King,  Bethel University        
			-----------------------------------------

	Previous internal coordinate definitions found.
	---Fragment 1 Geometry and Gradient---
	 H          -4.3450542859       -0.1291683542        0.3787124317
	 H          -4.2130761946        3.1327566250       -0.2685767317
	 H          -3.5465685641        0.9354373700       -2.6730849658
	 C          -3.3582847505        1.3189015337       -0.6742673008
	 H           0.4761170091        2.5481250521       -1.2173670091
	 H          -0.3596962734        2.0437902616        1.9733636717
	 C          -0.5556579363        1.3317114823        0.0649894247
	 H          -0.4756030578       -2.5475288896        1.2189077177
	 H           0.3625640681       -2.0464719450       -1.9716452751
	 C           0.5565901310       -1.3322715010       -0.0635372205
	 H           4.1319770801       -3.2092713124        0.5790959931
	 H           3.5674854670       -0.6114731277        2.5798680675
	 H           4.4035413187       -0.1112715168       -0.6029156328
	 C           3.3572109087       -1.3187550729        0.6731209491
	             0.0034259733        0.0021038661       -0.0013290755
	             0.0032883982       -0.0021648037        0.0006144391
	             0.0022316449        0.0015905600        0.0033614993
	            -0.0134323758       -0.0039607022       -0.0039958136
	            -0.0033240032       -0.0042071384       -0.0000464345
	            -0.0023873323       -0.0030029841       -0.0032316733
	             0.0125820271        0.0157847495        0.0054381334
	             0.0033427277        0.0038457312       -0.0004918203
	             0.0025524343        0.0035014739        0.0030939338
	            -0.0126674395       -0.0158124760       -0.0050059082
	            -0.0033198583        0.0023371744       -0.0005193619
	            -0.0021257196       -0.0013672033       -0.0032993179
	            -0.0033026482       -0.0020352614        0.0012522722
	             0.0131361715        0.0033870140        0.0041591274

	---Fragment 1 Intrafragment Coordinates---
	 - Coordinate -           - BOHR/RAD -       - ANG/DEG -
	 R(1,4)           =         2.044355	       1.081826
	 R(2,4)           =         2.045806	       1.082594
	 R(3,4)           =         2.043959	       1.081616
	 R(4,7)           =         2.898514	       1.533827
	 R(5,7)           =         2.046621	       1.083025
	 R(6,7)           =         2.046301	       1.082856
	 R(7,10)          =         2.889709	       1.529168
	 R(8,10)          =         2.046201	       1.082803
	 R(9,10)          =         2.046608	       1.083018
	 R(10,14)         =         2.895915	       1.532452
	 R(11,14)         =         2.045276	       1.082314
	 R(12,14)         =         2.044541	       1.081924
	 R(13,14)         =         2.044772	       1.082047
	 B(1,4,2)         =         1.900963	     108.917167
	 B(1,4,3)         =         1.903226	     109.046807
	 B(1,4,7)         =         1.916094	     109.784091
	 B(2,4,3)         =         1.898397	     108.770162
	 B(2,4,7)         =         1.927843	     110.457275
	 B(3,4,7)         =         1.916983	     109.835028
	 B(4,7,5)         =         1.907396	     109.285748
	 B(4,7,6)         =         1.909208	     109.389581
	 B(4,7,10)        =         1.935581	     110.900646
	 B(5,7,6)         =         1.906292	     109.222462
	 B(5,7,10)        =         1.902881	     109.027076
	 B(6,7,10)        =         1.902253	     108.991082
	 B(7,10,8)        =         1.902316	     108.994685
	 B(7,10,9)        =         1.903592	     109.067762
	 B(7,10,14)       =         1.935441	     110.892581
	 B(8,10,9)        =         1.906308	     109.223405
	 B(8,10,14)       =         1.908357	     109.340779
	 B(9,10,14)       =         1.907605	     109.297710
	 B(10,14,11)      =         1.928724	     110.507739
	 B(10,14,12)      =         1.915918	     109.774030
	 B(10,14,13)      =         1.916526	     109.808851
	 B(11,14,12)      =         1.900407	     108.885324
	 B(11,14,13)      =         1.900023	     108.863277
	 B(12,14,13)      =         1.901891	     108.970349
	 D(1,4,7,5)       =         2.970922	     170.221307
	 D(1,4,7,6)       =        -1.226004	     -70.244865
	 D(1,4,7,10)      =         0.872655	      49.999444
	 D(2,4,7,5)       =        -1.215658	     -69.652073
	 D(2,4,7,6)       =         0.870601	      49.881755
	 D(2,4,7,10)      =         2.969260	     170.126064
	 D(3,4,7,5)       =         0.878333	      50.324773
	 D(3,4,7,6)       =         2.964592	     169.858601
	 D(3,4,7,10)      =        -1.219934	     -69.897090
	 D(4,7,10,8)      =        -1.040675	     -59.626286
	 D(4,7,10,9)      =         1.039241	      59.544133
	 D(4,7,10,14)     =         3.140821	     179.955813
	 D(5,7,10,8)      =         3.141559	     179.998069
	 D(5,7,10,9)      =        -1.061710	     -60.831512
	 D(5,7,10,14)     =         1.039870	      59.580168
	 D(6,7,10,8)      =         1.062116	      60.854780
	 D(6,7,10,9)      =        -3.141153	    -179.974802
	 D(6,7,10,14)     =        -1.039573	     -59.563121
	 D(7,10,14,11)    =         3.141093	     179.971376
	 D(7,10,14,12)    =         1.044733	      59.858793
	 D(7,10,14,13)    =        -1.045820	     -59.921082
	 D(8,10,14,11)    =         1.042995	      59.759227
	 D(8,10,14,12)    =        -1.053365	     -60.353355
	 D(8,10,14,13)    =         3.139267	     179.866769
	 D(9,10,14,11)    =        -1.042897	     -59.753608
	 D(9,10,14,12)    =        -3.139257	    -179.866191
	 D(9,10,14,13)    =         1.053375	      60.353934

	Current energy   :      -158.1595608816

	Energy change for the previous step:
		Projected    :        -0.0038032584
		Actual       :        -0.0030387065

	Performing BFGS update.
	Previous computed or guess Hessian on step 1.
	Steps to be used in Hessian update: 1
	Adding user-defined constraint: Fragment 1; Coordinate 46:
		Value =    -1.219934; Fixed value    =    -1.221730
		Force =    -0.000943; Force constant =     0.525000
	Removing off-diagonal coupling between coordinate 46 and others.
	Taking RFO optimization step.
	Going to follow RFO solution 1.
	Using RFO vector 1.

	Determining step-restricting scale parameter for RS-RFO.
	Maximum step size allowed    0.10000

	 Iter      |step|        alpha        rfo_root  
	------------------------------------------------
	    0     0.15604       1.00000           1
	    1     0.13041       6.04889           1
	    2     0.10942      15.74200           1
	    3     0.10129      21.81219           1
	    4     0.10003      22.92958           1
	    5     0.10000      22.95692           1
	------------------------------------------------
	Norm of target step-size    0.10000
	Projected energy change by RFO approximation:        -0.0016377335

	Back-transformation to cartesian coordinates...
	Successfully converged to displaced geometry.

	--- Internal Coordinate Step in ANG or DEG, aJ/ANG or AJ/DEG ---
	 ---------------------------------------------------------------------------
	   Coordinate                Previous        Force       Change         New 
	   ----------                --------       ------       ------       ------
	    1 R(1,4)          =      1.081826     0.031541     0.005941     1.087767
	    2 R(2,4)          =      1.082594     0.026129     0.004720     1.087315
	    3 R(3,4)          =      1.081616     0.031235     0.005840     1.087456
	    4 R(4,7)          =      1.533827    -0.038662    -0.010645     1.523183
	    5 R(5,7)          =      1.083025     0.034167     0.006503     1.089528
	    6 R(6,7)          =      1.082856     0.035323     0.006716     1.089572
	    7 R(7,10)         =      1.529168    -0.039398    -0.009919     1.519249
	    8 R(8,10)         =      1.082803     0.035249     0.006695     1.089498
	    9 R(9,10)         =      1.083018     0.035826     0.006800     1.089819
	   10 R(10,14)        =      1.532452    -0.038389    -0.010495     1.521957
	   11 R(11,14)        =      1.082314     0.027963     0.005016     1.087329
	   12 R(12,14)        =      1.081924     0.031048     0.005839     1.087763
	   13 R(13,14)        =      1.082047     0.030264     0.005699     1.087746
	   14 B(1,4,2)        =    108.917167    -0.000158    -0.702452   108.214715
	   15 B(1,4,3)        =    109.046807    -0.000137    -0.662255   108.384552
	   16 B(1,4,7)        =    109.784091     0.000128     0.666585   110.450676
	   17 B(2,4,3)        =    108.770162    -0.000172    -0.829192   107.940970
	   18 B(2,4,7)        =    110.457275     0.000201     0.818860   111.276135
	   19 B(3,4,7)        =    109.835028     0.000129     0.638727   110.473755
	   20 B(4,7,5)        =    109.285748    -0.000026     0.167840   109.453588
	   21 B(4,7,6)        =    109.389581    -0.000024     0.117528   109.507109
	   22 B(4,7,10)       =    110.900646     0.000269     1.141164   112.041811
	   23 B(5,7,6)        =    109.222462    -0.000080    -1.201821   108.020640
	   24 B(5,7,10)       =    109.027076    -0.000064    -0.050725   108.976351
	   25 B(6,7,10)       =    108.991082    -0.000080    -0.238229   108.752854
	   26 B(7,10,8)       =    108.994685    -0.000076    -0.179173   108.815512
	   27 B(7,10,9)       =    109.067762    -0.000066    -0.109878   108.957884
	   28 B(7,10,14)      =    110.892581     0.000265     1.124555   112.017137
	   29 B(8,10,9)       =    109.223405    -0.000078    -1.185650   108.037755
	   30 B(8,10,14)      =    109.340779    -0.000023     0.147628   109.488407
	   31 B(9,10,14)      =    109.297710    -0.000027     0.139866   109.437575
	   32 B(10,14,11)     =    110.507739     0.000202     0.865523   111.373262
	   33 B(10,14,12)     =    109.774030     0.000117     0.584062   110.358092
	   34 B(10,14,13)     =    109.808851     0.000120     0.595348   110.404199
	   35 B(11,14,12)     =    108.885324    -0.000151    -0.667714   108.217609
	   36 B(11,14,13)     =    108.863277    -0.000152    -0.662253   108.201025
	   37 B(12,14,13)     =    108.970349    -0.000145    -0.783612   108.186737
	   38 D(1,4,7,5)      =    170.221307     0.000017     0.865121   171.086428
	   39 D(1,4,7,6)      =    -70.244865    -0.000012    -0.426790   -70.671655
	   40 D(1,4,7,10)     =     49.999444     0.000000     0.085230    50.084674
	   41 D(2,4,7,5)      =    -69.652073     0.000020     0.951492   -68.700581
	   42 D(2,4,7,6)      =     49.881755    -0.000010    -0.340419    49.541336
	   43 D(2,4,7,10)     =    170.126064     0.000003     0.171600   170.297664
	   44 D(3,4,7,5)      =     50.324773     0.000019     0.858647    51.183419
	   45 D(3,4,7,6)      =    169.858601    -0.000010    -0.433264   169.425337
	   46 D(3,4,7,10)     =    -69.897090     0.000002     0.078755   -69.818335
	   47 D(4,7,10,8)     =    -59.626286     0.000020     0.752348   -58.873937
[...]

  ==> CPHF Iterations <==

  => Iterations <=

             Iter  Converged  Remaining    Residual
  CGR           1          0          1   8.473E-02
  CGR           2          0          1   1.341E-02
  CGR           3          0          1   3.542E-03
  CGR           4          0          1   8.153E-04
  CGR           5          0          1   1.194E-04
  CGR           6          0          1   2.200E-05
  CGR           7          0          1   3.816E-06
  CGR           8          1          0   8.670E-07

    CGRSolver converged.

  ==> DFCorrGrad: Density-Fitted Correlated Gradients <==

    OpenMP threads:              1
    Integrals threads:           1
    Memory (MB):              3576
    Schwarz Cutoff:          0E+00
    Fitting Condition:       1E-12

   => Auxiliary Basis Set <=

  Basis Set: (AUG-CC-PVTZ AUX)
    Blend: AUG-CC-PVTZ-JKFIT
    Number of shells: 260
    Number of basis function: 876
    Number of Cartesian functions: 1074
    Spherical Harmonics?: true
    Max angular momentum: 4

	-----------------------------------------------------------
	 ==================> DF-MP2 Energies <==================== 
	-----------------------------------------------------------
	 Reference Energy          =    -157.3560964783747522 [Eh]
	 Singles Energy            =      -0.0000000000000000 [Eh]
	 Same-Spin Energy          =      -0.1654512521443895 [Eh]
	 Opposite-Spin Energy      =      -0.6391913977783871 [Eh]
	 Correlation Energy        =      -0.8046426499227766 [Eh]
	 Total Energy              =    -158.1607391282975357 [Eh]
	-----------------------------------------------------------
	 ================> DF-SCS-MP2 Energies <================== 
	-----------------------------------------------------------
	 SCS Same-Spin Scale       =       0.3333333333333333 [-]
	 SCS Opposite-Spin Scale   =       1.2000000000000000 [-]
	 SCS Same-Spin Energy      =      -0.0551504173814632 [Eh]
	 SCS Opposite-Spin Energy  =      -0.7670296773340645 [Eh]
	 SCS Correlation Energy    =      -0.8221800947155277 [Eh]
	 SCS Total Energy          =    -158.1782765730902724 [Eh]
	-----------------------------------------------------------


  -Total Gradient:
     Atom            X                  Y                   Z
    ------   -----------------  -----------------  -----------------
       1       -0.000044076991    -0.000048253869     0.000030076116
       2       -0.000009624481     0.000026835580     0.000008248794
       3        0.000078090201     0.001543262286    -0.000348822262
       4       -0.000091044923    -0.002015046419     0.000818977431
       5        0.000015477441    -0.000003724705    -0.000047860985
       6       -0.000009833591    -0.000001463625     0.000004279608
       7        0.000410783655     0.000650996262    -0.001535667945
       8        0.000007230393     0.000013463553     0.000014494399
       9        0.000003256425     0.000005970055    -0.000045294399
      10       -0.000309324067    -0.000203986883     0.001098082718
      11        0.000015683293    -0.000048039473    -0.000003936009
      12        0.000018346758     0.000015427225     0.000049373020
      13        0.000027682198     0.000026982607    -0.000030183361
      14       -0.000112646309     0.000037577406    -0.000011767127


*** tstop() called on gpu-2-14.local at Wed Jun 14 15:03:44 2017
Module time:
	user time   =     447.51 seconds =       7.46 minutes
	system time =       4.74 seconds =       0.08 minutes
	total time  =        505 seconds =       8.42 minutes
Total time:
	user time   =    2296.15 seconds =      38.27 minutes
	system time =      25.44 seconds =       0.42 minutes
	total time  =       2597 seconds =      43.28 minutes

			-----------------------------------------
			 OPTKING 2.0: for geometry optimizations 
			  - R.A. King,  Bethel University        
			-----------------------------------------

	Previous internal coordinate definitions found.
	---Fragment 1 Geometry and Gradient---
	 H          -4.3979873169       -0.1247630194        0.3510903322
	 H          -4.2313445129        3.1319216370       -0.3016679647
	 H          -3.5665749523        0.9383331249       -2.6953865373
	 C          -3.3534240747        1.3129465847       -0.6844497310
	 H           0.4768628531        2.5771498068       -1.1594885635
	 H          -0.3840843034        2.0376982453        1.9836014860
	 C          -0.5854530951        1.3049685333        0.0665553992
	 H          -0.4596626622       -2.5565115076        1.2308347025
	 H           0.3399344474       -2.0812936607       -1.9396304977
	 C           0.5798246992       -1.3110865987       -0.0414779923
	 H           4.1619515617       -3.1998341791        0.5880053607
	 H           3.6274258137       -0.5782709584        2.5639481069
	 H           4.4329786402       -0.1150239428       -0.6256109778
	 C           3.3590944996       -1.3092981565        0.6597338438
	            -0.0000440770       -0.0000482539        0.0000300761
	            -0.0000096245        0.0000268356        0.0000082488
	             0.0000780902        0.0015432623       -0.0003488223
	            -0.0000910449       -0.0020150464        0.0008189774
	             0.0000154774       -0.0000037247       -0.0000478610
	            -0.0000098336       -0.0000014636        0.0000042796
	             0.0004107837        0.0006509963       -0.0015356679
	             0.0000072304        0.0000134636        0.0000144944
	             0.0000032564        0.0000059701       -0.0000452944
	            -0.0003093241       -0.0002039869        0.0010980827
	             0.0000156833       -0.0000480395       -0.0000039360
	             0.0000183468        0.0000154272        0.0000493730
	             0.0000276822        0.0000269826       -0.0000301834
	            -0.0001126463        0.0000375774       -0.0000117671

	---Fragment 1 Intrafragment Coordinates---
	 - Coordinate -           - BOHR/RAD -       - ANG/DEG -
	 R(1,4)           =         2.056809	       1.088417
	 R(2,4)           =         2.055708	       1.087834
	 R(3,4)           =         2.056608	       1.088310
	 R(4,7)           =         2.868054	       1.517709
	 R(5,7)           =         2.061588	       1.090945
	 R(6,7)           =         2.062161	       1.091249
	 R(7,10)          =         2.865883	       1.516560
	 R(8,10)          =         2.061649	       1.090978
	 R(9,10)          =         2.062462	       1.091408
	 R(10,14)         =         2.866364	       1.516814
	 R(11,14)         =         2.055201	       1.087565
	 R(12,14)         =         2.057288	       1.088670
	 R(13,14)         =         2.057092	       1.088566
	 B(1,4,2)         =         1.883748	     107.930810
	 B(1,4,3)         =         1.888441	     108.199692
	 B(1,4,7)         =         1.935161	     110.876533
	 B(2,4,3)         =         1.874422	     107.396487
	 B(2,4,7)         =         1.945359	     111.460846
	 B(3,4,7)         =         1.934305	     110.827491
	 B(4,7,5)         =         1.917571	     109.868748
	 B(4,7,6)         =         1.914184	     109.674647
	 B(4,7,10)        =         1.966094	     112.648887
	 B(5,7,6)         =         1.858005	     106.455851
	 B(5,7,10)        =         1.908538	     109.351189
	 B(6,7,10)        =         1.896194	     108.643929
	 B(7,10,8)        =         1.899860	     108.853963
	 B(7,10,9)        =         1.905286	     109.164820
	 B(7,10,14)       =         1.965416	     112.610057
	 B(8,10,9)        =         1.858479	     106.483020
	 B(8,10,14)       =         1.915892	     109.772512
	 B(9,10,14)       =         1.915754	     109.764618
	 B(10,14,11)      =         1.949445	     111.694948
	 B(10,14,12)      =         1.931701	     110.678308
	 B(10,14,13)      =         1.932303	     110.712780
	 B(11,14,12)      =         1.884115	     107.951857
	 B(11,14,13)      =         1.884211	     107.957315
	 B(12,14,13)      =         1.879643	     107.695604
	 D(1,4,7,5)       =         3.011810	     172.564030
	 D(1,4,7,6)       =        -1.234829	     -70.750486
	 D(1,4,7,10)      =         0.879391	      50.385376
	 D(2,4,7,5)       =        -1.172377	     -67.172267
	 D(2,4,7,6)       =         0.864169	      49.513217
	 D(2,4,7,10)      =         2.978388	     170.649079
	 D(3,4,7,5)       =         0.914257	      52.383096
	 D(3,4,7,6)       =         2.950803	     169.068580
	 D(3,4,7,10)      =        -1.218162	     -69.795559
	 D(4,7,10,8)      =        -1.032473	     -59.156353
	 D(4,7,10,9)      =         0.989572	      56.698306
	 D(4,7,10,14)     =         3.121973	     178.875899
	 D(5,7,10,8)      =         3.113206	     178.373580
	 D(5,7,10,9)      =        -1.147934	     -65.771761
	 D(5,7,10,14)     =         0.984467	      56.405832
	 D(6,7,10,8)      =         1.091975	      62.565538
	 D(6,7,10,9)      =         3.114020	     178.420197
	 D(6,7,10,14)     =        -1.036764	     -59.402210
	 D(7,10,14,11)    =         3.133435	     179.532608
	 D(7,10,14,12)    =         1.033584	      59.220011
	 D(7,10,14,13)    =        -1.049368	     -60.124368
	 D(8,10,14,11)    =         1.013791	      58.085936
	 D(8,10,14,12)    =        -1.086060	     -62.226661
	 D(8,10,14,13)    =         3.114173	     178.428961
	 D(9,10,14,11)    =        -1.023268	     -58.628941
	 D(9,10,14,12)    =        -3.123119	    -178.941538
	 D(9,10,14,13)    =         1.077114	      61.714083

	Current energy   :      -158.1607391283

	Energy change for the previous step:
		Projected    :        -0.0000035704
		Actual       :        -0.0000044859

	Performing BFGS update.
	Previous computed or guess Hessian on step 1.
	Steps to be used in Hessian update: 4 3
	Adding user-defined constraint: Fragment 1; Coordinate 46:
		Value =    -1.218162; Fixed value    =    -1.221730
		Force =    -0.002141; Force constant =     0.600000
	Removing off-diagonal coupling between coordinate 46 and others.
	Taking RFO optimization step.
	Going to follow RFO solution 1.
	Using RFO vector 1.
	Norm of target step-size    0.00220
	Projected energy change by RFO approximation:        -0.0000001861

	Back-transformation to cartesian coordinates...
	Successfully converged to displaced geometry.

	--- Internal Coordinate Step in ANG or DEG, aJ/ANG or AJ/DEG ---
	 ---------------------------------------------------------------------------
	   Coordinate                Previous        Force       Change         New 
	   ----------                --------       ------       ------       ------
	    1 R(1,4)          =      1.088417    -0.000587    -0.000097     1.088320
	    2 R(2,4)          =      1.087834    -0.000242    -0.000041     1.087793
	    3 R(3,4)          =      1.088310    -0.000427    -0.000074     1.088236
	    4 R(4,7)          =      1.517709     0.000578     0.000162     1.517871
	    5 R(5,7)          =      1.090945    -0.000281    -0.000044     1.090902
	    6 R(6,7)          =      1.091249    -0.000021    -0.000009     1.091239
	    7 R(7,10)         =      1.516560     0.000357     0.000102     1.516662
	    8 R(8,10)         =      1.090978     0.000023     0.000001     1.090979
	    9 R(9,10)         =      1.091408    -0.000322    -0.000055     1.091352
	   10 R(10,14)        =      1.516814     0.000400     0.000118     1.516932
	   11 R(11,14)        =      1.087565    -0.000416    -0.000068     1.087498
	   12 R(12,14)        =      1.088670    -0.000441    -0.000074     1.088596
	   13 R(13,14)        =      1.088566    -0.000403    -0.000069     1.088497
	   14 B(1,4,2)        =    107.930810     0.000000     0.001138   107.931948
	   15 B(1,4,3)        =    108.199692     0.000003     0.006308   108.206000
	   16 B(1,4,7)        =    110.876533     0.000000    -0.004250   110.872283
	   17 B(2,4,3)        =    107.396487    -0.000003    -0.003676   107.392811
	   18 B(2,4,7)        =    111.460846    -0.000001     0.002100   111.462945
	   19 B(3,4,7)        =    110.827491    -0.000000    -0.001387   110.826103
	   20 B(4,7,5)        =    109.868748    -0.000001     0.002955   109.871702
	   21 B(4,7,6)        =    109.674647    -0.000000    -0.004627   109.670020
	   22 B(4,7,10)       =    112.648887     0.000003     0.014194   112.663080
	   23 B(5,7,6)        =    106.455851    -0.000000    -0.012827   106.443024
	   24 B(5,7,10)       =    109.351189     0.000003     0.014232   109.365420
	   25 B(6,7,10)       =    108.643929    -0.000004    -0.015640   108.628289
	   26 B(7,10,8)       =    108.853963    -0.000001    -0.000708   108.853255
	   27 B(7,10,9)       =    109.164820    -0.000000     0.001149   109.165969
	   28 B(7,10,14)      =    112.610057     0.000003     0.015085   112.625143
	   29 B(8,10,9)       =    106.483020    -0.000000    -0.012846   106.470174
	   30 B(8,10,14)      =    109.772512    -0.000001     0.000334   109.772846
	   31 B(9,10,14)      =    109.764618    -0.000001    -0.004559   109.760060
	   32 B(10,14,11)     =    111.694948     0.000001     0.005835   111.700783
	   33 B(10,14,12)     =    110.678308    -0.000001    -0.008746   110.669562
	   34 B(10,14,13)     =    110.712780    -0.000000    -0.001454   110.711326
	   35 B(11,14,12)     =    107.951857     0.000000     0.001839   107.953696
	   36 B(11,14,13)     =    107.957315    -0.000000     0.001596   107.958911
	   37 B(12,14,13)     =    107.695604     0.000001     0.001090   107.696694
	   38 D(1,4,7,5)      =    172.564030     0.000000     0.021785   172.585815
	   39 D(1,4,7,6)      =    -70.750486     0.000000     0.005254   -70.745232
	   40 D(1,4,7,10)     =     50.385376    -0.000001    -0.008418    50.376957
	   41 D(2,4,7,5)      =    -67.172267     0.000000     0.021755   -67.150512
	   42 D(2,4,7,6)      =     49.513217     0.000000     0.005224    49.518441
	   43 D(2,4,7,10)     =    170.649079    -0.000001    -0.008448   170.640630
	   44 D(3,4,7,5)      =     52.383096    -0.000001     0.017579    52.400675
	   45 D(3,4,7,6)      =    169.068580    -0.000001     0.001048   169.069628
	   46 D(3,4,7,10)     =    -69.795559    -0.000002    -0.012624   -69.808183
	   47 D(4,7,10,8)     =    -59.156353     0.000000    -0.014179   -59.170532
	   48 D(4,7,10,9)     =     56.698306     0.000000    -0.029253    56.669053
	   49 D(4,7,10,14)    =    178.875899     0.000000    -0.024100   178.851798
	   50 D(5,7,10,8)     =    178.373580    -0.000000    -0.037871   178.335709
	   51 D(5,7,10,9)     =    -65.771761    -0.000000    -0.052945   -65.824707
	   52 D(5,7,10,14)    =     56.405832    -0.000000    -0.047792    56.358039
	   53 D(6,7,10,8)     =     62.565538     0.000000    -0.021682    62.543856
	   54 D(6,7,10,9)     =    178.420197    -0.000000    -0.036756   178.383441
	   55 D(6,7,10,14)    =    -59.402210    -0.000000    -0.031603   -59.433813
	   56 D(7,10,14,11)   =    179.532608    -0.000000    -0.007325   179.525283
	   57 D(7,10,14,12)   =     59.220011    -0.000000    -0.007603    59.212408
	   58 D(7,10,14,13)   =    -60.124368     0.000000    -0.002377   -60.126744
	   59 D(8,10,14,11)   =     58.085936    -0.000000    -0.016858    58.069078
	   60 D(8,10,14,12)   =    -62.226661    -0.000000    -0.017136   -62.243797
	   61 D(8,10,14,13)   =    178.428961    -0.000000    -0.011910   178.417051
	   62 D(9,10,14,11)   =    -58.628941     0.000000     0.001176   -58.627765
	   63 D(9,10,14,12)   =   -178.941538     0.000000     0.000898  -178.940640
	   64 D(9,10,14,13)   =     61.714083     0.000000     0.006124    61.720208
	 ---------------------------------------------------------------------------
	Successfully symmetrized geometry.
	 Forces used to impose fixed constraints are not included.
	  Forces zeroed: 46 

  ==> Convergence Check <==

  Measures of convergence in internal coordinates in au.
  Criteria marked as inactive (o), active & met (*), and active & unmet ( ).
  ---------------------------------------------------------------------------------------------
   Step     Total Energy     Delta E     MAX Force     RMS Force      MAX Disp      RMS Disp   
  ---------------------------------------------------------------------------------------------
    Convergence Criteria    1.00e-06 *    3.00e-04 *             o    1.20e-03 *             o
  ---------------------------------------------------------------------------------------------
      5    -158.16073913   -4.49e-06      7.13e-05 *    2.81e-05 o    9.24e-04 *    2.75e-04 o  ~
  ---------------------------------------------------------------------------------------------


  **** Optimization is complete! (in 5 steps) ****

  ==> Optimization Summary <==

  Measures of convergence in internal coordinates in au.
  --------------------------------------------------------------------------------------------------------------- ~
   Step         Total Energy             Delta E       MAX Force       RMS Force        MAX Disp        RMS Disp  ~
  --------------------------------------------------------------------------------------------------------------- ~
      1    -158.156522175192   -158.156522175192      0.01317802      0.00561490      0.02522909      0.01250470  ~
      2    -158.159560881643     -0.003038706451      0.00478201      0.00224589      0.03042494      0.01252351  ~
      3    -158.160551262786     -0.000990381143      0.00151147      0.00058284      0.04802661      0.01251766  ~
      4    -158.160734642352     -0.000183379565      0.00052046      0.00014833      0.00777206      0.00252821  ~
      5    -158.160739128298     -0.000004485946      0.00009485      0.00003052      0.00092407      0.00027549  ~
  --------------------------------------------------------------------------------------------------------------- ~

	Writing optimization data to binary file.
	Final energy is   -158.1607391282975
	Final (previous) structure:
	Cartesian Geometry (in Angstrom)
	    H    -2.3273146518  -0.0660217464   0.1857890020
	    H    -2.2391310779   1.6573415494  -0.1596358115
	    H    -1.8873501775   0.4965445038  -1.4263371239
	    C    -1.7745555911   0.6947814087  -0.3621951981
	    H     0.2523449535   1.3637689409  -0.6135749214
	    H    -0.2032486595   1.0783034694   1.0496766973
	    C    -0.3098084346   0.6905596058   0.0352196004
	    H    -0.2432430045  -1.3528476233   0.6513296721
	    H     0.1798855620  -1.1013731696  -1.0264082525
	    C     0.3068300158  -0.6937971465  -0.0219492082
	    H     2.2024099097  -1.6932793188   0.3111590354
	    H     1.9195510665  -0.3060078116   1.3567829022
	    H     2.3458312626  -0.0608680490  -0.3310590709
	    C     1.7775562507  -0.6928507437   0.3491161139
	Saving final (previous) structure.
			--------------------------
			 OPTKING Finished Execution 
			--------------------------

    Final optimized geometry and variables:
    Molecular point group: c1
    Full point group: C1

    Geometry (in Angstrom), charge = 0, multiplicity = 1:

    H           -2.327314651775    -0.066021746357     0.185789001963
    H           -2.239131077922     1.657341549390    -0.159635811487
    H           -1.887350177495     0.496544503784    -1.426337123892
    C           -1.774555591056     0.694781408733    -0.362195198065
    H            0.252344953498     1.363768940891    -0.613574921447
    H           -0.203248659547     1.078303469403     1.049676697307
    C           -0.309808434644     0.690559605754     0.035219600358
    H           -0.243243004465    -1.352847623327     0.651329672095
    H            0.179885561971    -1.101373169600    -1.026408252451
    C            0.306830015774    -0.693797146512    -0.021949208186
    H            2.202409909691    -1.693279318848     0.311159035424
    H            1.919551066458    -0.306007811560     1.356782902176
    H            2.345831262557    -0.060868048972    -0.331059070901
    C            1.777556250695    -0.692850743652     0.349116113862

	Cleaning optimization helper files.

*** Psi4 exiting successfully. Buy a developer a beer!
