
    -----------------------------------------------------------------------
          Psi4: An Open-Source Ab Initio Electronic Structure Package
                               Psi4 1.1 release

                         Git: Rev {HEAD} add49b9 


    R. M. Parrish, L. A. Burns, D. G. A. Smith, A. C. Simmonett,
    A. E. DePrince III, E. G. Hohenstein, U. Bozkaya, A. Yu. Sokolov,
    R. Di Remigio, R. M. Richard, J. F. Gonthier, A. M. James,
    H. R. McAlexander, A. Kumar, M. Saitow, X. Wang, B. P. Pritchard,
    P. Verma, H. F. Schaefer III, K. Patkowski, R. A. King, E. F. Valeev,
    F. A. Evangelista, J. M. Turney, T. D. Crawford, and C. D. Sherrill,
    J. Chem. Theory Comput. in press (2017).
    (doi: 10.1021/acs.jctc.7b00174)

    -----------------------------------------------------------------------


    Psi4 started on: Wednesday, 14 June 2017 02:24PM

    Process ID:  27789
    PSIDATADIR: /cbio/jclab/home/chayas/anaconda/envs/py35/share/psi4
    Memory:     500.0 MiB
    Threads:    1
    
  ==> Input File <==

--------------------------------------------------------------------------

memory 1000 mb

molecule butane {
  symmetry C1
  0 1 
  H      3.516   1.428   -6.392
  H      2.458   2.584   -7.166
  H      2.054   0.884   -7.178
  C      2.856   1.591   -7.217
  H      2.970   1.579   -9.363
  H      4.432   2.123   -8.577
  C      3.631   1.416   -8.537
  H      3.665   -0.647   -7.940
  H      4.104   -0.384   -9.610
  C      4.203   -0.012   -8.612
  H      6.088   -0.983   -8.270
  H      5.791   0.381   -7.220
  H      6.230   0.644   -8.890
  C      5.691   0.009   -8.218
  units Angstrom
}

dih_string = "14 10 7 4 260"
set optking fixed_dihedral = $dih_string

optimize('MP2/aug-cc-pvtz')
--------------------------------------------------------------------------

  Memory set to 953.674 MiB by Python driver.
gradient() will perform analytic gradient computation.

*** tstart() called on gpu-1-17.local
*** at Wed Jun 14 14:24:09 2017

    SCF Algorithm Type (re)set to DF.

*** tstart() called on gpu-1-17.local
*** at Wed Jun 14 14:24:09 2017

   => Loading Basis Set <=

    Name: AUG-CC-PVTZ
    Role: ORBITAL
    Keyword: BASIS
    atoms 1-3, 5-6, 8-9, 11-13 entry H          line    34 file /cbio/jclab/home/chayas/anaconda/envs/py35/share/psi4/basis/aug-cc-pvtz.gbs 
    atoms 4, 7, 10, 14         entry C          line   221 file /cbio/jclab/home/chayas/anaconda/envs/py35/share/psi4/basis/aug-cc-pvtz.gbs 


         ---------------------------------------------------------
                                   SCF
            by Justin Turney, Rob Parrish, and Andy Simmonett
                              RHF Reference
                        1 Threads,    953 MiB Core
         ---------------------------------------------------------

  ==> Geometry <==

    Molecular point group: c1
    Full point group: C1

    Geometry (in Angstrom), charge = 0, multiplicity = 1:

       Center              X                  Y                   Z               Mass       
    ------------   -----------------  -----------------  -----------------  -----------------
           H         -0.585418949597     0.675282064669     1.739180638662     1.007825032070
           H         -1.643418949597     1.831282064669     0.965180638662     1.007825032070
           H         -2.047418949597     0.131282064669     0.953180638662     1.007825032070
           C         -1.245418949597     0.838282064669     0.914180638662    12.000000000000
           H         -1.131418949597     0.826282064669    -1.231819361338     1.007825032070
           H          0.330581050403     1.370282064669    -0.445819361338     1.007825032070
           C         -0.470418949597     0.663282064669    -0.405819361338    12.000000000000
           H         -0.436418949597    -1.399717935331     0.191180638662     1.007825032070
           H          0.002581050403    -1.136717935331    -1.478819361338     1.007825032070
           C          0.101581050403    -0.764717935331    -0.480819361338    12.000000000000
           H          1.986581050403    -1.735717935331    -0.138819361338     1.007825032070
           H          1.689581050403    -0.371717935331     0.911180638662     1.007825032070
           H          2.128581050403    -0.108717935331    -0.758819361338     1.007825032070
           C          1.589581050403    -0.743717935331    -0.086819361338    12.000000000000

  Running in c1 symmetry.

  Rotational constants: A =      0.51545  B =      0.14294  C =      0.13563 [cm^-1]
  Rotational constants: A =  15452.79676  B =   4285.16506  C =   4066.09752 [MHz]
  Nuclear repulsion =  133.135412469358016

  Charge       = 0
  Multiplicity = 1
  Electrons    = 34
  Nalpha       = 17
  Nbeta        = 17

  ==> Algorithm <==

  SCF Algorithm Type is DF.
  DIIS enabled.
  MOM disabled.
  Fractional occupation disabled.
  Guess Type is SAD.
  Energy threshold   = 1.00e-10
  Density threshold  = 1.00e-10
  Integral threshold = 0.00e+00

  ==> Primary Basis <==

  Basis Set: AUG-CC-PVTZ
    Blend: AUG-CC-PVTZ
    Number of shells: 146
    Number of basis function: 414
    Number of Cartesian functions: 470
    Spherical Harmonics?: true
    Max angular momentum: 3

   => Loading Basis Set <=

    Name: (AUG-CC-PVTZ AUX)
    Role: JKFIT
    Keyword: DF_BASIS_SCF
    atoms 1-3, 5-6, 8-9, 11-13 entry H          line    69 file /cbio/jclab/home/chayas/anaconda/envs/py35/share/psi4/basis/aug-cc-pvtz-jkfit.gbs 
    atoms 4, 7, 10, 14         entry C          line   161 file /cbio/jclab/home/chayas/anaconda/envs/py35/share/psi4/basis/aug-cc-pvtz-jkfit.gbs 

  ==> Pre-Iterations <==

   -------------------------------------------------------
    Irrep   Nso     Nmo     Nalpha   Nbeta   Ndocc  Nsocc
   -------------------------------------------------------
     A        414     414       0       0       0       0
   -------------------------------------------------------
    Total     414     414      17      17      17       0
   -------------------------------------------------------

  ==> Integral Setup <==

  ==> DFJK: Density-Fitted J/K Matrices <==

    J tasked:                  Yes
    K tasked:                  Yes
    wK tasked:                  No
    OpenMP threads:              1
    Integrals threads:           1
    Memory (MB):               715
    Algorithm:                Core
    Integral Cache:           NONE
    Schwarz Cutoff:          1E-12
    Fitting Condition:       1E-12

   => Auxiliary Basis Set <=

  Basis Set: (AUG-CC-PVTZ AUX)
    Blend: AUG-CC-PVTZ-JKFIT
    Number of shells: 260
    Number of basis function: 876
    Number of Cartesian functions: 1074
    Spherical Harmonics?: true
    Max angular momentum: 4

  Minimum eigenvalue in the overlap matrix is 7.4940761369E-06.
  Using Symmetric Orthogonalization.

  SCF Guess: Superposition of Atomic Densities via on-the-fly atomic UHF.

  ==> Iterations <==

                           Total Energy        Delta E     RMS |[F,P]|

   @DF-RHF iter   0:  -159.07433752423555   -1.59074e+02   9.61520e-03 
   @DF-RHF iter   1:  -157.25348787479464    1.82085e+00   8.23093e-04 
   @DF-RHF iter   2:  -157.33843053158168   -8.49427e-02   2.37502e-04 DIIS
   @DF-RHF iter   3:  -157.34685915200731   -8.42862e-03   9.32274e-05 DIIS
   @DF-RHF iter   4:  -157.34794710059094   -1.08795e-03   2.02871e-05 DIIS
   @DF-RHF iter   5:  -157.34802000706188   -7.29065e-05   3.73756e-06 DIIS
   @DF-RHF iter   6:  -157.34802329109812   -3.28404e-06   7.01900e-07 DIIS
   @DF-RHF iter   7:  -157.34802338488953   -9.37914e-08   1.86657e-07 DIIS
   @DF-RHF iter   8:  -157.34802339112130   -6.23177e-09   5.16293e-08 DIIS
   @DF-RHF iter   9:  -157.34802339159731   -4.76007e-10   1.53558e-08 DIIS
   @DF-RHF iter  10:  -157.34802339164742   -5.01075e-11   3.10778e-09 DIIS
   @DF-RHF iter  11:  -157.34802339165060   -3.18323e-12   7.30950e-10 DIIS
   @DF-RHF iter  12:  -157.34802339165006    5.40012e-13   2.07726e-10 DIIS
   @DF-RHF iter  13:  -157.34802339164895    1.10845e-12   4.30171e-11 DIIS

  ==> Post-Iterations <==

    Orbital Energies (a.u.)
    -----------------------

    Doubly Occupied:                                                      

       1A    -11.205584     2A    -11.204994     3A    -11.200006  
       4A    -11.199878     5A     -1.071931     6A     -0.978716  
       7A     -0.868004     8A     -0.790806     9A     -0.633414  
      10A     -0.615513    11A     -0.582031    12A     -0.547300  
      13A     -0.521439    14A     -0.508351    15A     -0.472950  
      16A     -0.459441    17A     -0.445250  

    Virtual:                                                              

      18A      0.032045    19A      0.037730    20A      0.039914  
      21A      0.040901    22A      0.056915    23A      0.058705  
      24A      0.059715    25A      0.061985    26A      0.075676  
      27A      0.083913    28A      0.104751    29A      0.120439  
      30A      0.122035    31A      0.127243    32A      0.129355  
      33A      0.133470    34A      0.140266    35A      0.143740  
      36A      0.154206    37A      0.154844    38A      0.159695  
      39A      0.164716    40A      0.179736    41A      0.192005  
      42A      0.207822    43A      0.213457    44A      0.239123  
      45A      0.243384    46A      0.250373    47A      0.255371  
      48A      0.272721    49A      0.276756    50A      0.296132  
      51A      0.302138    52A      0.309023    53A      0.313357  
      54A      0.321788    55A      0.330589    56A      0.336309  
      57A      0.347274    58A      0.356812    59A      0.358508  
      60A      0.364722    61A      0.368222    62A      0.370777  
      63A      0.385352    64A      0.385532    65A      0.390383  
      66A      0.396517    67A      0.404388    68A      0.404707  
      69A      0.418341    70A      0.424489    71A      0.425649  
      72A      0.438379    73A      0.443169    74A      0.446251  
      75A      0.452091    76A      0.454778    77A      0.464303  
      78A      0.473860    79A      0.476264    80A      0.480528  
      81A      0.482273    82A      0.494029    83A      0.500864  
      84A      0.505054    85A      0.522953    86A      0.524564  
      87A      0.527208    88A      0.538964    89A      0.544136  
      90A      0.548366    91A      0.568024    92A      0.571341  
      93A      0.575540    94A      0.581802    95A      0.586739  
      96A      0.594434    97A      0.607984    98A      0.614969  
      99A      0.619584   100A      0.625781   101A      0.630221  
     102A      0.643267   103A      0.660005   104A      0.664989  
     105A      0.676894   106A      0.732074   107A      0.749583  
     108A      0.779645   109A      0.793947   110A      0.816021  
     111A      0.828694   112A      0.833262   113A      0.834911  
     114A      0.846449   115A      0.847581   116A      0.859308  
     117A      0.863708   118A      0.870119   119A      0.872975  
     120A      0.881802   121A      0.895003   122A      0.912553  
     123A      0.915799   124A      0.915966   125A      0.917480  
     126A      0.930831   127A      0.931324   128A      0.941152  
     129A      0.945645   130A      0.963427   131A      0.969792  
     132A      0.977215   133A      0.979962   134A      0.996905  
     135A      1.000913   136A      1.020841   137A      1.038427  
     138A      1.039522   139A      1.047014   140A      1.058836  
     141A      1.082912   142A      1.096849   143A      1.097611  
     144A      1.107628   145A      1.124462   146A      1.130508  
     147A      1.134706   148A      1.136290   149A      1.147883  
     150A      1.153530   151A      1.172154   152A      1.179877  
     153A      1.183127   154A      1.196395   155A      1.210231  
     156A      1.229537   157A      1.230668   158A      1.233220  
     159A      1.238230   160A      1.248265   161A      1.275182  
     162A      1.276681   163A      1.289949   164A      1.302001  
     165A      1.309418   166A      1.313395   167A      1.328124  
     168A      1.329499   169A      1.363163   170A      1.377065  
     171A      1.383844   172A      1.410969   173A      1.414780  
     174A      1.437428   175A      1.443529   176A      1.453924  
     177A      1.474877   178A      1.483621   179A      1.487627  
     180A      1.495070   181A      1.509727   182A      1.523224  
     183A      1.542277   184A      1.574178   185A      1.579025  
     186A      1.587310   187A      1.595118   188A      1.614023  
     189A      1.617851   190A      1.626325   191A      1.675577  
     192A      1.677019   193A      1.678219   194A      1.682537  
     195A      1.698747   196A      1.709301   197A      1.717896  
     198A      1.728157   199A      1.735163   200A      1.745025  
     201A      1.755698   202A      1.761748   203A      1.765803  
     204A      1.778706   205A      1.793654   206A      1.805963  
     207A      1.814619   208A      1.825977   209A      1.831786  
     210A      1.839197   211A      1.864467   212A      1.877756  
     213A      1.898536   214A      1.898777   215A      1.907624  
     216A      1.944337   217A      1.959551   218A      1.971121  
     219A      1.985260   220A      2.018220   221A      2.023361  
     222A      2.032590   223A      2.047909   224A      2.058197  
     225A      2.070128   226A      2.080400   227A      2.096042  
     228A      2.101158   229A      2.105747   230A      2.121716  
     231A      2.191023   232A      2.198596   233A      2.200521  
     234A      2.216693   235A      2.241308   236A      2.245295  
     237A      2.264295   238A      2.279370   239A      2.296076  
     240A      2.305737   241A      2.326380   242A      2.341837  
     243A      2.361954   244A      2.363398   245A      2.379585  
     246A      2.411772   247A      2.447681   248A      2.456570  
     249A      2.480952   250A      2.485764   251A      2.503773  
     252A      2.551461   253A      2.557329   254A      2.570897  
     255A      2.582771   256A      2.666730   257A      2.834230  
     258A      2.835826   259A      3.007743   260A      3.033039  
     261A      3.219993   262A      3.250783   263A      3.325994  
     264A      3.337602   265A      3.377897   266A      3.428487  
     267A      3.445476   268A      3.491566   269A      3.492870  
     270A      3.510620   271A      3.539105   272A      3.546025  
     273A      3.569330   274A      3.576284   275A      3.584923  
     276A      3.629535   277A      3.636980   278A      3.671477  
     279A      3.690119   280A      3.694351   281A      3.706354  
     282A      3.707386   283A      3.722066   284A      3.744141  
     285A      3.758490   286A      3.797765   287A      3.800056  
     288A      3.814694   289A      3.816764   290A      3.819318  
     291A      3.839600   292A      3.851636   293A      3.856290  
     294A      3.859712   295A      3.947677   296A      3.963205  
     297A      3.971926   298A      3.987120   299A      3.995584  
     300A      4.002768   301A      4.010895   302A      4.018968  
     303A      4.025263   304A      4.034669   305A      4.065750  
     306A      4.087315   307A      4.096066   308A      4.098963  
     309A      4.127847   310A      4.159771   311A      4.175596  
     312A      4.183570   313A      4.210919   314A      4.237943  
     315A      4.255429   316A      4.269223   317A      4.294673  
     318A      4.301359   319A      4.314377   320A      4.332075  
     321A      4.362697   322A      4.370401   323A      4.409078  
     324A      4.421676   325A      4.431387   326A      4.447467  
     327A      4.497441   328A      4.529097   329A      4.583475  
     330A      4.612839   331A      4.639442   332A      4.671862  
     333A      4.689314   334A      4.690252   335A      4.717000  
     336A      4.733269   337A      4.746762   338A      4.777651  
     339A      4.799925   340A      4.838019   341A      4.840499  
     342A      4.865234   343A      4.877363   344A      4.898774  
     345A      4.903836   346A      4.905260   347A      4.952947  
     348A      4.955274   349A      4.982782   350A      5.030645  
     351A      5.032513   352A      5.034428   353A      5.040117  
     354A      5.100242   355A      5.100743   356A      5.171067  
     357A      5.176336   358A      5.205334   359A      5.233198  
     360A      5.256107   361A      5.266300   362A      5.278289  
     363A      5.303680   364A      5.306892   365A      5.327868  
     366A      5.339429   367A      5.373042   368A      5.394406  
     369A      5.414931   370A      5.455452   371A      5.463698  
     372A      5.495723   373A      5.511299   374A      5.547548  
     375A      5.563792   376A      5.592911   377A      5.619601  
     378A      5.655208   379A      5.675575   380A      5.688451  
     381A      5.726122   382A      5.761545   383A      5.781231  
     384A      5.806448   385A      5.855832   386A      5.869034  
     387A      5.889503   388A      5.919461   389A      5.967369  
     390A      6.067959   391A      6.089480   392A      6.134805  
     393A      6.173897   394A      6.194071   395A      6.234088  
     396A      6.285062   397A      6.301358   398A      6.319304  
     399A      6.323344   400A      6.393887   401A      6.417291  
     402A      6.482360   403A      6.576044   404A      6.594995  
     405A      6.784293   406A      6.787826   407A      6.830179  
     408A      6.864970   409A      6.941697   410A      6.966053  
     411A     18.118485   412A     18.404704   413A     18.777760  
     414A     19.655346  

    Final Occupation by Irrep:
              A 
    DOCC [    17 ]

  Energy converged.

  @DF-RHF Final Energy:  -157.34802339164895

   => Energetics <=

    Nuclear Repulsion Energy =            133.1354124693580161
    One-Electron Energy =                -474.3556551392281904
    Two-Electron Energy =                 183.8722192782212232
    DFT Exchange-Correlation Energy =       0.0000000000000000
    Empirical Dispersion Energy =           0.0000000000000000
    PCM Polarization Energy =               0.0000000000000000
    EFP Energy =                            0.0000000000000000
    Total Energy =                       -157.3480233916489510



Properties will be evaluated at   0.000000,   0.000000,   0.000000 Bohr

Properties computed using the SCF density matrix

  Nuclear Dipole Moment: (a.u.)
     X:     0.2754      Y:     0.0767      Z:     0.6617

  Electronic Dipole Moment: (a.u.)
     X:    -0.2910      Y:    -0.0817      Z:    -0.7001

  Dipole Moment: (a.u.)
     X:    -0.0156      Y:    -0.0049      Z:    -0.0385     Total:     0.0418

  Dipole Moment: (Debye)
     X:    -0.0395      Y:    -0.0126      Z:    -0.0978     Total:     0.1062


*** tstop() called on gpu-1-17.local at Wed Jun 14 14:25:59 2017
Module time:
	user time   =     109.58 seconds =       1.83 minutes
	system time =       0.61 seconds =       0.01 minutes
	total time  =        110 seconds =       1.83 minutes
Total time:
	user time   =     109.59 seconds =       1.83 minutes
	system time =       0.61 seconds =       0.01 minutes
	total time  =        110 seconds =       1.83 minutes

  //>>>>>>>>>>>>>>>>>>>>>>>>>>>>>>>>>>>//
  //               DFMP2               //
  //<<<<<<<<<<<<<<<<<<<<<<<<<<<<<<<<<<<//

   => Loading Basis Set <=

    Name: (AUG-CC-PVTZ AUX)
    Role: RIFIT
    Keyword: DF_BASIS_MP2
    atoms 1-3, 5-6, 8-9, 11-13 entry H          line    29 file /cbio/jclab/home/chayas/anaconda/envs/py35/share/psi4/basis/aug-cc-pvtz-ri.gbs 
    atoms 4, 7, 10, 14         entry C          line   147 file /cbio/jclab/home/chayas/anaconda/envs/py35/share/psi4/basis/aug-cc-pvtz-ri.gbs 

	 --------------------------------------------------------
	                          DF-MP2                         
	      2nd-Order Density-Fitted Moller-Plesset Theory     
	              RMP2 Wavefunction,   1 Threads             
	                                                         
	        Rob Parrish, Justin Turney, Andy Simmonett,      
	           Ed Hohenstein, and C. David Sherrill          
	 --------------------------------------------------------

   => Auxiliary Basis Set <=

  Basis Set: (AUG-CC-PVTZ AUX)
    Blend: AUG-CC-PVTZ-RI
    Number of shells: 252
    Number of basis function: 884
    Number of Cartesian functions: 1094
    Spherical Harmonics?: true
    Max angular momentum: 4

	 --------------------------------------------------------
	                 NBF =   414, NAUX =   884
	 --------------------------------------------------------
	   CLASS    FOCC     OCC    AOCC    AVIR     VIR    FVIR
	   PAIRS       0      17      17     397     397       0
	 --------------------------------------------------------


         ------------------------------------------------------------
                                     CPHF                           
                                  Rob Parrish                       
         ------------------------------------------------------------

  ==> Geometry <==

    Molecular point group: c1
    Full point group: C1

    Geometry (in Angstrom), charge = 0, multiplicity = 1:

       Center              X                  Y                   Z               Mass       
    ------------   -----------------  -----------------  -----------------  -----------------
           H         -0.585418949597     0.675282064669     1.739180638662     1.007825032070
           H         -1.643418949597     1.831282064669     0.965180638662     1.007825032070
           H         -2.047418949597     0.131282064669     0.953180638662     1.007825032070
           C         -1.245418949597     0.838282064669     0.914180638662    12.000000000000
           H         -1.131418949597     0.826282064669    -1.231819361338     1.007825032070
           H          0.330581050403     1.370282064669    -0.445819361338     1.007825032070
           C         -0.470418949597     0.663282064669    -0.405819361338    12.000000000000
           H         -0.436418949597    -1.399717935331     0.191180638662     1.007825032070
           H          0.002581050403    -1.136717935331    -1.478819361338     1.007825032070
           C          0.101581050403    -0.764717935331    -0.480819361338    12.000000000000
           H          1.986581050403    -1.735717935331    -0.138819361338     1.007825032070
           H          1.689581050403    -0.371717935331     0.911180638662     1.007825032070
           H          2.128581050403    -0.108717935331    -0.758819361338     1.007825032070
           C          1.589581050403    -0.743717935331    -0.086819361338    12.000000000000

  Nuclear repulsion =  133.135412469358016
  Reference energy  = -157.348023391648951

  ==> Basis Set <==

  Basis Set: AUG-CC-PVTZ
    Blend: AUG-CC-PVTZ
    Number of shells: 146
    Number of basis function: 414
    Number of Cartesian functions: 470
    Spherical Harmonics?: true
    Max angular momentum: 3

  ==> CGRSolver (by Rob Parrish) <==

   Number of roots    =         1
   Preconditioning    =    JACOBI
   Convergence cutoff =     1E-06
   Maximum iterations =       100

  ==> CPHFRHamiltonian (by Rob Parrish) <== 

  ==> DFJK: Density-Fitted J/K Matrices <==

    J tasked:                  Yes
    K tasked:                  Yes
    wK tasked:                  No
    OpenMP threads:              1
    Integrals threads:           1
    Memory (MB):               715
    Algorithm:                Core
    Integral Cache:           NONE
    Schwarz Cutoff:          1E-12
    Fitting Condition:       1E-12

   => Auxiliary Basis Set <=

  Basis Set: (AUG-CC-PVTZ AUX)
    Blend: AUG-CC-PVTZ-JKFIT
    Number of shells: 260
    Number of basis function: 876
    Number of Cartesian functions: 1074
    Spherical Harmonics?: true
    Max angular momentum: 4

  ==> CPHF Iterations <==

  => Iterations <=

             Iter  Converged  Remaining    Residual
  CGR           1          0          1   8.370E-02
  CGR           2          0          1   1.346E-02
  CGR           3          0          1   3.302E-03
  CGR           4          0          1   8.284E-04
  CGR           5          0          1   1.679E-04
  CGR           6          0          1   3.264E-05
  CGR           7          0          1   6.211E-06
  CGR           8          0          1   1.296E-06
  CGR           9          1          0   1.900E-07

    CGRSolver converged.

  ==> DFCorrGrad: Density-Fitted Correlated Gradients <==

    OpenMP threads:              1
    Integrals threads:           1
    Memory (MB):               715
    Schwarz Cutoff:          0E+00
    Fitting Condition:       1E-12

   => Auxiliary Basis Set <=

  Basis Set: (AUG-CC-PVTZ AUX)
    Blend: AUG-CC-PVTZ-JKFIT
    Number of shells: 260
    Number of basis function: 876
    Number of Cartesian functions: 1074
    Spherical Harmonics?: true
    Max angular momentum: 4

	-----------------------------------------------------------
	 ==================> DF-MP2 Energies <==================== 
	-----------------------------------------------------------
	 Reference Energy          =    -157.3480233916489510 [Eh]
	 Singles Energy            =      -0.0000000000000000 [Eh]
	 Same-Spin Energy          =      -0.1656792509822253 [Eh]
	 Opposite-Spin Energy      =      -0.6396310888084812 [Eh]
	 Correlation Energy        =      -0.8053103397907064 [Eh]
	 Total Energy              =    -158.1533337314396590 [Eh]
	-----------------------------------------------------------
	 ================> DF-SCS-MP2 Energies <================== 
	-----------------------------------------------------------
	 SCS Same-Spin Scale       =       0.3333333333333333 [-]
	 SCS Opposite-Spin Scale   =       1.2000000000000000 [-]
	 SCS Same-Spin Energy      =      -0.0552264169940751 [Eh]
	 SCS Opposite-Spin Energy  =      -0.7675573065701774 [Eh]
	 SCS Correlation Energy    =      -0.8227837235642526 [Eh]
	 SCS Total Energy          =    -158.1708071152131936 [Eh]
	-----------------------------------------------------------


  -Total Gradient:
     Atom            X                  Y                   Z
    ------   -----------------  -----------------  -----------------
       1       -0.006208917184     0.001811094323    -0.011417440404
       2        0.005499587902    -0.009948508510    -0.004741710233
       3        0.009129289299     0.006984491837    -0.001875137311
       4       -0.011994501136    -0.004335725530     0.024446103427
       5        0.007059138632    -0.005101994942     0.008980077456
       6       -0.008509620304    -0.009806189161     0.003152628262
       7        0.011654829403     0.023095097139    -0.021552336596
       8        0.007287178729     0.009279983899    -0.005439597694
       9        0.001030320431     0.007436199644     0.010625233625
      10       -0.020968908796    -0.025750467990    -0.002828464020
      11       -0.008367049961     0.010093527336    -0.001197159552
      12       -0.003356089375    -0.004302466281    -0.011389251784
      13       -0.007063722606    -0.006271546171     0.006403431861
      14        0.024808464967     0.006816504408     0.006833622963


*** tstop() called on gpu-1-17.local at Wed Jun 14 14:31:21 2017
Module time:
	user time   =     426.82 seconds =       7.11 minutes
	system time =       4.16 seconds =       0.07 minutes
	total time  =        432 seconds =       7.20 minutes
Total time:
	user time   =     426.83 seconds =       7.11 minutes
	system time =       4.16 seconds =       0.07 minutes
	total time  =        432 seconds =       7.20 minutes

			-----------------------------------------
			 OPTKING 2.0: for geometry optimizations 
			  - R.A. King,  Bethel University        
			-----------------------------------------

	Internal coordinates to be generated automatically.
	Detected frag 1 with atoms:  1 2 3 4 5 6 7 8 9 10 11 12 13 14
	---Fragment 1 Bond Connectivity---
	 1 : 4
	 2 : 4
	 3 : 4
	 4 : 1 2 3 7
	 5 : 7
	 6 : 7
	 7 : 4 5 6 10
	 8 : 10
	 9 : 10
	 10 : 7 8 9 14
	 11 : 14
	 12 : 14
	 13 : 14
	 14 : 10 11 12 13

	Assuming in current code that numbering for constraints corresponds to unified fragment.
	Fixed dihedral atom list: 
	    14    10     7     4
	---Fragment 1 Geometry and Gradient---
	 H          -1.1062814877        1.2760981647        3.2865751027
	 H          -3.1056117363        3.4606215743        1.8239270758
	 H          -3.8690610940        0.2480871484        1.8012503622
	 C          -2.3535007354        1.5841235243        1.7275510431
	 H          -2.1380719563        1.5614468107       -2.3278012381
	 H           0.6247076500        2.5894578270       -0.8424764977
	 C          -0.8889629825        1.2534214511       -0.7668874524
	 H          -0.8247122939       -2.6450835611        0.3612790490
	 H           0.0048774784       -2.1480855881       -2.7945635929
	 C           0.1919603656       -1.4451074667       -0.9086169123
	 H           3.7540941260       -3.2800315417       -0.2623305749
	 H           3.1928454646       -0.7024450965        1.7218818647
	 H           4.0224352369       -0.2054471235       -1.4339607773
	 C           3.0038728513       -1.4054232179       -0.1640648160
	            -0.0062089172        0.0018110943       -0.0114174404
	             0.0054995879       -0.0099485085       -0.0047417102
	             0.0091292893        0.0069844918       -0.0018751373
	            -0.0119945011       -0.0043357255        0.0244461034
	             0.0070591386       -0.0051019949        0.0089800775
	            -0.0085096203       -0.0098061892        0.0031526283
	             0.0116548294        0.0230950971       -0.0215523366
	             0.0072871787        0.0092799839       -0.0054395977
	             0.0010303204        0.0074361996        0.0106252336
	            -0.0209689088       -0.0257504680       -0.0028284640
	            -0.0083670500        0.0100935273       -0.0011971596
	            -0.0033560894       -0.0043024663       -0.0113892518
	            -0.0070637226       -0.0062715462        0.0064034319
	             0.0248084650        0.0068165044        0.0068336230

	Previous optimization step data not found.  Starting new optimization.

	---Fragment 1 Intrafragment Coordinates---
	 - Coordinate -           - BOHR/RAD -       - ANG/DEG -
	 R(1,4)           =         2.020146	       1.069015
	 R(2,4)           =         2.023908	       1.071006
	 R(3,4)           =         2.021719	       1.069848
	 R(4,7)           =         2.911436	       1.540665
	 R(5,7)           =         2.022772	       1.070405
	 R(6,7)           =         2.020373	       1.069135
	 R(7,10)          =         2.910419	       1.540128
	 R(8,10)          =         2.021436	       1.069698
	 R(9,10)          =         2.021379	       1.069668
	 R(10,14)         =         2.909087	       1.539422
	 R(11,14)         =         2.021545	       1.069756
	 R(12,14)         =         2.021555	       1.069761
	 R(13,14)         =         2.022387	       1.070201
	 B(1,4,2)         =         1.911396	     109.514928
	 B(1,4,3)         =         1.911260	     109.507151
	 B(1,4,7)         =         1.910618	     109.470358
	 B(2,4,3)         =         1.909641	     109.414386
	 B(2,4,7)         =         1.910327	     109.453702
	 B(3,4,7)         =         1.910556	     109.466768
	 B(4,7,5)         =         1.910510	     109.464153
	 B(4,7,6)         =         1.911142	     109.500375
	 B(4,7,10)        =         1.911196	     109.503483
	 B(5,7,6)         =         1.910365	     109.455871
	 B(5,7,10)        =         1.910238	     109.448592
	 B(6,7,10)        =         1.910347	     109.454828
	 B(7,10,8)        =         1.910303	     109.452301
	 B(7,10,9)        =         1.910824	     109.482155
	 B(7,10,14)       =         1.911213	     109.504437
	 B(8,10,9)        =         1.910417	     109.458846
	 B(8,10,14)       =         1.910766	     109.478806
	 B(9,10,14)       =         1.910276	     109.450772
	 B(10,14,11)      =         1.910943	     109.488965
	 B(10,14,12)      =         1.911204	     109.503926
	 B(10,14,13)      =         1.911557	     109.524173
	 B(11,14,12)      =         1.910410	     109.458432
	 B(11,14,13)      =         1.910054	     109.438058
	 B(12,14,13)      =         1.909629	     109.413709
	 D(1,4,7,5)       =         3.141356	     179.986459
	 D(1,4,7,6)       =        -1.047526	     -60.018817
	 D(1,4,7,10)      =         1.047176	      59.998748
	 D(2,4,7,5)       =        -1.046696	     -59.971268
	 D(2,4,7,6)       =         1.047607	      60.023456
	 D(2,4,7,10)      =        -3.140877	    -179.958979
	 D(3,4,7,5)       =         1.046250	      59.945706
	 D(3,4,7,6)       =         3.140553	     179.940431
	 D(3,4,7,10)      =        -1.047931	     -60.042005
	 D(4,7,10,8)      =         0.349801	      20.042117
	 D(4,7,10,9)      =         2.443846	     140.022071
	 D(4,7,10,14)     =        -1.744909	     -99.975925
	 D(5,7,10,8)      =        -1.744546	     -99.955119
	 D(5,7,10,9)      =         0.349499	      20.024836
	 D(5,7,10,14)     =         2.443929	     140.026839
	 D(6,7,10,8)      =         2.444989	     140.087547
	 D(6,7,10,9)      =        -1.744151	     -99.932498
	 D(6,7,10,14)     =         0.350279	      20.069506
	 D(7,10,14,11)    =         3.141408	     179.989448
	 D(7,10,14,12)    =         1.046747	      59.974196
	 D(7,10,14,13)    =        -1.047335	     -60.007849
	 D(8,10,14,11)    =         1.046982	      59.987626
	 D(8,10,14,12)    =        -1.047680	     -60.027626
	 D(8,10,14,13)    =         3.141424	     179.990329
	 D(9,10,14,11)    =        -1.047012	     -59.989345
	 D(9,10,14,12)    =         3.141512	     179.995403
	 D(9,10,14,13)    =         1.047431	      60.013359

	Current energy   :      -158.1533337314

	Generating empirical Hessian (Schlegel '84) for each fragment.
	Adding user-defined constraint: Fragment 1; Coordinate 49:
		Value =    -1.744909; Fixed value    =    -1.745329
		Force =    -0.000210; Force constant =     0.500000
	Removing off-diagonal coupling between coordinate 49 and others.
	Taking RFO optimization step.
	Going to follow RFO solution 1.
	Using RFO vector 1.

	Determining step-restricting scale parameter for RS-RFO.
	Maximum step size allowed    0.10000

	 Iter      |step|        alpha        rfo_root  
	------------------------------------------------
	    0     0.21004       1.00000           1
	    1     0.16702       3.57706           1
	    2     0.13164      11.65689           1
	    3     0.11018      23.85667           1
	    4     0.10153      32.09492           1
	    5     0.10004      33.79198           1
	    6     0.10000      33.84172           1
	------------------------------------------------
	Norm of target step-size    0.10000
	Projected energy change by RFO approximation:        -0.0046606337

	Back-transformation to cartesian coordinates...
	Successfully converged to displaced geometry.

	--- Internal Coordinate Step in ANG or DEG, aJ/ANG or AJ/DEG ---
	 ---------------------------------------------------------------------------
	   Coordinate                Previous        Force       Change         New 
	   ----------                --------       ------       ------       ------
	    1 R(1,4)          =      1.069015     0.106450     0.013283     1.082298
	    2 R(2,4)          =      1.071006     0.094691     0.011874     1.082880
	    3 R(3,4)          =      1.069848     0.094973     0.011875     1.081723
	    4 R(4,7)          =      1.540665    -0.054937    -0.008287     1.532378
	    5 R(5,7)          =      1.070405     0.099407     0.012446     1.082851
	    6 R(6,7)          =      1.069135     0.106923     0.013346     1.082481
	    7 R(7,10)         =      1.540128     0.000881     0.000133     1.540260
	    8 R(8,10)         =      1.069698     0.103735     0.012966     1.082663
	    9 R(9,10)         =      1.069668     0.103765     0.012969     1.082636
	   10 R(10,14)        =      1.539422    -0.050037    -0.007528     1.531894
	   11 R(11,14)        =      1.069756     0.102216     0.012778     1.082533
	   12 R(12,14)        =      1.069761     0.102449     0.012807     1.082568
	   13 R(13,14)        =      1.070201     0.093095     0.011650     1.081851
	   14 B(1,4,2)        =    109.514928    -0.000266    -0.660261   108.854667
	   15 B(1,4,3)        =    109.507151    -0.000152    -0.424656   109.082495
	   16 B(1,4,7)        =    109.470358     0.000141     0.334810   109.805168
	   17 B(2,4,3)        =    109.414386    -0.000221    -0.528759   108.885627
	   18 B(2,4,7)        =    109.453702     0.000431     1.107489   110.561192
	   19 B(3,4,7)        =    109.466768     0.000068     0.156071   109.622839
	   20 B(4,7,5)        =    109.464153    -0.000196    -0.465592   108.998561
	   21 B(4,7,6)        =    109.500375    -0.000149    -0.270490   109.229885
	   22 B(4,7,10)       =    109.503483     0.000553     1.251734   110.755217
	   23 B(5,7,6)        =    109.455871    -0.000030    -0.377674   109.078197
	   24 B(5,7,10)       =    109.448592    -0.000013     0.165794   109.614387
	   25 B(6,7,10)       =    109.454828    -0.000165    -0.315282   109.139546
	   26 B(7,10,8)       =    109.452301    -0.000166    -0.319382   109.132919
	   27 B(7,10,9)       =    109.482155    -0.000018     0.147941   109.630097
	   28 B(7,10,14)      =    109.504437     0.000557     1.260402   110.764839
	   29 B(8,10,9)       =    109.458846    -0.000031    -0.380399   109.078447
	   30 B(8,10,14)      =    109.478806    -0.000148    -0.266128   109.212679
	   31 B(9,10,14)      =    109.450772    -0.000193    -0.454172   108.996600
	   32 B(10,14,11)     =    109.488965     0.000430     1.104450   110.593414
	   33 B(10,14,12)     =    109.503926     0.000134     0.320769   109.824695
	   34 B(10,14,13)     =    109.524173     0.000061     0.137909   109.662082
	   35 B(11,14,12)     =    109.458432    -0.000261    -0.644946   108.813486
	   36 B(11,14,13)     =    109.438058    -0.000222    -0.532497   108.905561
	   37 B(12,14,13)     =    109.413709    -0.000144    -0.403100   109.010609
	   38 D(1,4,7,5)      =    179.986459     0.000025     0.347198   180.333657
	   39 D(1,4,7,6)      =    -60.018817    -0.000032    -0.555363   -60.574180
	   40 D(1,4,7,10)     =     59.998748    -0.000022    -0.338656    59.660092
	   41 D(2,4,7,5)      =    -59.971268     0.000030     0.433282   -59.537986
	   42 D(2,4,7,6)      =     60.023456    -0.000027    -0.469280    59.554176
	   43 D(2,4,7,10)     =   -179.958979    -0.000016    -0.252572  -180.211551
	   44 D(3,4,7,5)      =     59.945706     0.000038     0.566178    60.511884
	   45 D(3,4,7,6)      =    179.940431    -0.000019    -0.336383   179.604047
	   46 D(3,4,7,10)     =    -60.042005    -0.000008    -0.119675   -60.161680
	   47 D(4,7,10,8)     =     20.042117     0.000028     0.445409    20.487526
	   48 D(4,7,10,9)     =    140.022071    -0.000006    -0.124153   139.897919
	   49 D(4,7,10,14)    =    -99.975925     0.000015     0.194857   -99.781068
	   50 D(5,7,10,8)     =    -99.955119     0.000008     0.135472   -99.819647
	   51 D(5,7,10,9)     =     20.024836    -0.000027    -0.434090    19.590746
	   52 D(5,7,10,14)    =    140.026839    -0.000006    -0.115080   139.911760
	   53 D(6,7,10,8)     =    140.087547     0.000041     0.688124   140.775672
	   54 D(6,7,10,9)     =    -99.932498     0.000006     0.118563   -99.813935
	   55 D(6,7,10,14)    =     20.069506     0.000028     0.437573    20.507078
	   56 D(7,10,14,11)   =    179.989448    -0.000016    -0.240434   179.749014
	   57 D(7,10,14,12)   =     59.974196    -0.000022    -0.335376    59.638820
	   58 D(7,10,14,13)   =    -60.007849    -0.000009    -0.123106   -60.130955
	   59 D(8,10,14,11)   =     59.987626    -0.000026    -0.459641    59.527985
	   60 D(8,10,14,12)   =    -60.027626    -0.000032    -0.554583   -60.582209
	   61 D(8,10,14,13)   =    179.990329    -0.000019    -0.342314   179.648016
	   62 D(9,10,14,11)   =    -59.989345     0.000030     0.436137   -59.553208
	   63 D(9,10,14,12)   =    179.995403     0.000024     0.341195   180.336598
	   64 D(9,10,14,13)   =     60.013359     0.000037     0.553464    60.566823
	 ---------------------------------------------------------------------------
	Successfully symmetrized geometry.
	 Forces used to impose fixed constraints are not included.
	  Forces zeroed: 49 

  ==> Convergence Check <==

  Measures of convergence in internal coordinates in au.
  Criteria marked as inactive (o), active & met (*), and active & unmet ( ).
  --------------------------------------------------------------------------------------------- ~
   Step     Total Energy     Delta E     MAX Force     RMS Force      MAX Disp      RMS Disp    ~
  --------------------------------------------------------------------------------------------- ~
    Convergence Criteria    1.00e-06 *    3.00e-04 *             o    1.20e-03 *             o  ~
  --------------------------------------------------------------------------------------------- ~
      1    -158.15333373   -1.58e+02      1.30e-02      5.43e-03 o    2.52e-02      1.25e-02 o  ~
  ---------------------------------------------------------------------------------------------

	Writing optimization data to binary file.
	Structure for next step:
	Cartesian Geometry (in Angstrom)
	    H    -0.6046999125   0.6670972231   1.7607643555
	    H    -1.6987787976   1.8088199354   0.9855446268
	    H    -2.0654466407   0.0865810344   0.9631326222
	    C    -1.2688784829   0.8171283914   0.9194991245
	    H    -1.1665920169   0.8119910530  -1.2230781514
	    H     0.2988348669   1.3918092198  -0.4312887668
	    C    -0.4918470561   0.6535873054  -0.3910962143
	    H    -0.4021359745  -1.4200136849   0.1832119538
	    H     0.0320283049  -1.1240508843  -1.5003616513
	    C     0.1260861209  -0.7540020182  -0.4872878839
	    H     2.0390738343  -1.7149046640  -0.1674424177
	    H     1.7178874965  -0.3607998513   0.9109499782
	    H     2.1448835396  -0.0646198225  -0.7728888935
	    C     1.6087194237  -0.7236743318  -0.1031297410
			--------------------------
			 OPTKING Finished Execution 
			--------------------------

    Structure for next step:
    Molecular point group: c1
    Full point group: C1

    Geometry (in Angstrom), charge = 0, multiplicity = 1:

    H           -0.604464429844     0.667114050982     1.761282424580
    H           -1.698543314920     1.808836763300     0.986062695789
    H           -2.065211158004     0.086597862259     0.963650691246
    C           -1.268643000245     0.817145219335     0.920017193521
    H           -1.166356534202     0.812007880864    -1.222560082337
    H            0.299070349539     1.391826047712    -0.430770697725
    C           -0.491611573450     0.653604133257    -0.390578145224
    H           -0.401900491888    -1.419996856986     0.183730022833
    H            0.032263787584    -1.124034056361    -1.499843582252
    C            0.126321603526    -0.753985190273    -0.486769814847
    H            2.039309316947    -1.714887836132    -0.166924348652
    H            1.718122979170    -0.360783023355     0.911468047217
    H            2.145119022306    -0.064602994595    -0.772370824439
    C            1.608954906355    -0.723657503936    -0.102611671963

gradient() will perform analytic gradient computation.

*** tstart() called on gpu-1-17.local
*** at Wed Jun 14 14:31:21 2017

    SCF Algorithm Type (re)set to DF.

*** tstart() called on gpu-1-17.local
*** at Wed Jun 14 14:31:21 2017

   => Loading Basis Set <=

    Name: AUG-CC-PVTZ
    Role: ORBITAL
    Keyword: BASIS
    atoms 1-3, 5-6, 8-9, 11-13 entry H          line    34 file /cbio/jclab/home/chayas/anaconda/envs/py35/share/psi4/basis/aug-cc-pvtz.gbs 
    atoms 4, 7, 10, 14         entry C          line   221 file /cbio/jclab/home/chayas/anaconda/envs/py35/share/psi4/basis/aug-cc-pvtz.gbs 


         ---------------------------------------------------------
                                   SCF
            by Justin Turney, Rob Parrish, and Andy Simmonett
                              RHF Reference
                        1 Threads,    953 MiB Core
         ---------------------------------------------------------

  ==> Geometry <==

    Molecular point group: c1
    Full point group: C1

    Geometry (in Angstrom), charge = 0, multiplicity = 1:

       Center              X                  Y                   Z               Mass       
    ------------   -----------------  -----------------  -----------------  -----------------
           H         -0.604464429844     0.667114050982     1.761282424580     1.007825032070
           H         -1.698543314920     1.808836763300     0.986062695789     1.007825032070
           H         -2.065211158004     0.086597862259     0.963650691246     1.007825032070
           C         -1.268643000245     0.817145219335     0.920017193521    12.000000000000
           H         -1.166356534202     0.812007880864    -1.222560082337     1.007825032070
           H          0.299070349539     1.391826047712    -0.430770697725     1.007825032070
           C         -0.491611573450     0.653604133257    -0.390578145224    12.000000000000
           H         -0.401900491888    -1.419996856986     0.183730022833     1.007825032070
           H          0.032263787584    -1.124034056361    -1.499843582252     1.007825032070
           C          0.126321603526    -0.753985190273    -0.486769814847    12.000000000000
           H          2.039309316947    -1.714887836132    -0.166924348652     1.007825032070
           H          1.718122979170    -0.360783023355     0.911468047217     1.007825032070
           H          2.145119022306    -0.064602994595    -0.772370824439     1.007825032070
           C          1.608954906355    -0.723657503936    -0.102611671963    12.000000000000

  Running in c1 symmetry.

  Rotational constants: A =      0.52031  B =      0.14100  C =      0.13384 [cm^-1]
  Rotational constants: A =  15598.56807  B =   4227.15857  C =   4012.39571 [MHz]
  Nuclear repulsion =  132.537262362857547

  Charge       = 0
  Multiplicity = 1
  Electrons    = 34
  Nalpha       = 17
  Nbeta        = 17

  ==> Algorithm <==

  SCF Algorithm Type is DF.
  DIIS enabled.
  MOM disabled.
  Fractional occupation disabled.
  Guess Type is READ.
  Energy threshold   = 1.00e-10
  Density threshold  = 1.00e-10
  Integral threshold = 0.00e+00

  ==> Primary Basis <==

  Basis Set: AUG-CC-PVTZ
    Blend: AUG-CC-PVTZ
    Number of shells: 146
    Number of basis function: 414
    Number of Cartesian functions: 470
    Spherical Harmonics?: true
    Max angular momentum: 3

   => Loading Basis Set <=

    Name: (AUG-CC-PVTZ AUX)
    Role: JKFIT
    Keyword: DF_BASIS_SCF
    atoms 1-3, 5-6, 8-9, 11-13 entry H          line    69 file /cbio/jclab/home/chayas/anaconda/envs/py35/share/psi4/basis/aug-cc-pvtz-jkfit.gbs 
    atoms 4, 7, 10, 14         entry C          line   161 file /cbio/jclab/home/chayas/anaconda/envs/py35/share/psi4/basis/aug-cc-pvtz-jkfit.gbs 

  Reading orbitals from file 180, no projection.

  ==> Pre-Iterations <==

   -------------------------------------------------------
    Irrep   Nso     Nmo     Nalpha   Nbeta   Ndocc  Nsocc
   -------------------------------------------------------
     A        414     414       0       0       0       0
   -------------------------------------------------------
    Total     414     414      17      17      17       0
   -------------------------------------------------------

  ==> Integral Setup <==

  ==> DFJK: Density-Fitted J/K Matrices <==

    J tasked:                  Yes
    K tasked:                  Yes
    wK tasked:                  No
    OpenMP threads:              1
    Integrals threads:           1
    Memory (MB):               715
    Algorithm:                Core
    Integral Cache:           NONE
    Schwarz Cutoff:          1E-12
    Fitting Condition:       1E-12

   => Auxiliary Basis Set <=

  Basis Set: (AUG-CC-PVTZ AUX)
    Blend: AUG-CC-PVTZ-JKFIT
    Number of shells: 260
    Number of basis function: 876
    Number of Cartesian functions: 1074
    Spherical Harmonics?: true
    Max angular momentum: 4

  Minimum eigenvalue in the overlap matrix is 7.8214592250E-06.
  Using Symmetric Orthogonalization.

  SCF Guess: Orbitals guess was supplied from a previous computation.

  ==> Iterations <==

                           Total Energy        Delta E     RMS |[F,P]|

   @DF-RHF iter   0:  -157.26046074514511   -1.57260e+02   1.62665e-04 
   @DF-RHF iter   1:  -157.35008036036879   -8.96196e-02   6.68808e-05 
   @DF-RHF iter   2:  -157.35054346530129   -4.63105e-04   3.46384e-05 DIIS
   @DF-RHF iter   3:  -157.35064492747102   -1.01462e-04   5.27452e-06 DIIS
   @DF-RHF iter   4:  -157.35065110373810   -6.17627e-06   1.19705e-06 DIIS
   @DF-RHF iter   5:  -157.35065137477147   -2.71033e-07   4.11338e-07 DIIS
   @DF-RHF iter   6:  -157.35065140039438   -2.56229e-08   8.10214e-08 DIIS
   @DF-RHF iter   7:  -157.35065140183809   -1.44371e-09   1.48910e-08 DIIS
   @DF-RHF iter   8:  -157.35065140188621   -4.81180e-11   3.44182e-09 DIIS
   @DF-RHF iter   9:  -157.35065140189027   -4.06430e-12   7.54909e-10 DIIS
   @DF-RHF iter  10:  -157.35065140189101   -7.38964e-13   1.48232e-10 DIIS
   @DF-RHF iter  11:  -157.35065140188877    2.24532e-12   2.96613e-11 DIIS

  ==> Post-Iterations <==

    Orbital Energies (a.u.)
    -----------------------

    Doubly Occupied:                                                      

       1A    -11.209795     2A    -11.209215     3A    -11.204732  
       4A    -11.204693     5A     -1.070804     6A     -0.978095  
       7A     -0.864554     8A     -0.785833     9A     -0.630529  
      10A     -0.613722    11A     -0.579405    12A     -0.545122  
      13A     -0.518487    14A     -0.505895    15A     -0.469243  
      16A     -0.457356    17A     -0.449798  

    Virtual:                                                              

      18A      0.032028    19A      0.037692    20A      0.039891  
      21A      0.040899    22A      0.056819    23A      0.058699  
      24A      0.059631    25A      0.062078    26A      0.076097  
      27A      0.083725    28A      0.104248    29A      0.120667  
      30A      0.122056    31A      0.126982    32A      0.129147  
      33A      0.133591    34A      0.140411    35A      0.143439  
      36A      0.154002    37A      0.154652    38A      0.159703  
      39A      0.164845    40A      0.179862    41A      0.192301  
      42A      0.208454    43A      0.212710    44A      0.237172  
      45A      0.242541    46A      0.248899    47A      0.254905  
      48A      0.270729    49A      0.274811    50A      0.295513  
      51A      0.301097    52A      0.307571    53A      0.312609  
      54A      0.320403    55A      0.330568    56A      0.336543  
      57A      0.346225    58A      0.356852    59A      0.357822  
      60A      0.364603    61A      0.367449    62A      0.370501  
      63A      0.383824    64A      0.384239    65A      0.390123  
      66A      0.395536    67A      0.402384    68A      0.403761  
      69A      0.416692    70A      0.423120    71A      0.424723  
      72A      0.437793    73A      0.441353    74A      0.443676  
      75A      0.449211    76A      0.452269    77A      0.459634  
      78A      0.471906    79A      0.473576    80A      0.478483  
      81A      0.481456    82A      0.493220    83A      0.499807  
      84A      0.503763    85A      0.522022    86A      0.523348  
      87A      0.527191    88A      0.537700    89A      0.543031  
      90A      0.548854    91A      0.567492    92A      0.570042  
      93A      0.573989    94A      0.581025    95A      0.585544  
      96A      0.593687    97A      0.608302    98A      0.612867  
      99A      0.618119   100A      0.624250   101A      0.628368  
     102A      0.641273   103A      0.657193   104A      0.665948  
     105A      0.675272   106A      0.729728   107A      0.749461  
     108A      0.778043   109A      0.792139   110A      0.814217  
     111A      0.828809   112A      0.832499   113A      0.833406  
     114A      0.846102   115A      0.846815   116A      0.858025  
     117A      0.861698   118A      0.868163   119A      0.872058  
     120A      0.877643   121A      0.890530   122A      0.912845  
     123A      0.913586   124A      0.914761   125A      0.915144  
     126A      0.928109   127A      0.929976   128A      0.939379  
     129A      0.944043   130A      0.962238   131A      0.967313  
     132A      0.976105   133A      0.978025   134A      0.995587  
     135A      1.000696   136A      1.020253   137A      1.037299  
     138A      1.037694   139A      1.043707   140A      1.057069  
     141A      1.079433   142A      1.093368   143A      1.093882  
     144A      1.104314   145A      1.120270   146A      1.126747  
     147A      1.131360   148A      1.134341   149A      1.143567  
     150A      1.149624   151A      1.168510   152A      1.177636  
     153A      1.180246   154A      1.191362   155A      1.205108  
     156A      1.225423   157A      1.226505   158A      1.228574  
     159A      1.235360   160A      1.244018   161A      1.271294  
     162A      1.272456   163A      1.282833   164A      1.296323  
     165A      1.300092   166A      1.308989   167A      1.321972  
     168A      1.324080   169A      1.357432   170A      1.375297  
     171A      1.379794   172A      1.404559   173A      1.409241  
     174A      1.433210   175A      1.439286   176A      1.451499  
     177A      1.470907   178A      1.478864   179A      1.487561  
     180A      1.491386   181A      1.504359   182A      1.522116  
     183A      1.540449   184A      1.571238   185A      1.578543  
     186A      1.582414   187A      1.598079   188A      1.608233  
     189A      1.612306   190A      1.621469   191A      1.669119  
     192A      1.673675   193A      1.674237   194A      1.676191  
     195A      1.689748   196A      1.703143   197A      1.713549  
     198A      1.725794   199A      1.728568   200A      1.740413  
     201A      1.752279   202A      1.757815   203A      1.762424  
     204A      1.777296   205A      1.789322   206A      1.805046  
     207A      1.811351   208A      1.826055   209A      1.826645  
     210A      1.834611   211A      1.860318   212A      1.873037  
     213A      1.893845   214A      1.894223   215A      1.900077  
     216A      1.938051   217A      1.954037   218A      1.959737  
     219A      1.979327   220A      2.009539   221A      2.012305  
     222A      2.024288   223A      2.045863   224A      2.050415  
     225A      2.062206   226A      2.070895   227A      2.091285  
     228A      2.097579   229A      2.100789   230A      2.108732  
     231A      2.186533   232A      2.189395   233A      2.193495  
     234A      2.211578   235A      2.233750   236A      2.238040  
     237A      2.256486   238A      2.272025   239A      2.293071  
     240A      2.302161   241A      2.317479   242A      2.333851  
     243A      2.354908   244A      2.356502   245A      2.366137  
     246A      2.400764   247A      2.440186   248A      2.451477  
     249A      2.476293   250A      2.490366   251A      2.493859  
     252A      2.547609   253A      2.548222   254A      2.570922  
     255A      2.575979   256A      2.660364   257A      2.840478  
     258A      2.843718   259A      3.018425   260A      3.043941  
     261A      3.215063   262A      3.264495   263A      3.322718  
     264A      3.336167   265A      3.378897   266A      3.431429  
     267A      3.454820   268A      3.485823   269A      3.491829  
     270A      3.508836   271A      3.541443   272A      3.544081  
     273A      3.568287   274A      3.572177   275A      3.581293  
     276A      3.619494   277A      3.636545   278A      3.668263  
     279A      3.688605   280A      3.690116   281A      3.708586  
     282A      3.708820   283A      3.716576   284A      3.735446  
     285A      3.758089   286A      3.794532   287A      3.806063  
     288A      3.811905   289A      3.812291   290A      3.816387  
     291A      3.836948   292A      3.849645   293A      3.851856  
     294A      3.862823   295A      3.946702   296A      3.950832  
     297A      3.966521   298A      3.973364   299A      3.984745  
     300A      3.996321   301A      3.998663   302A      4.010924  
     303A      4.018194   304A      4.027308   305A      4.052811  
     306A      4.077014   307A      4.082669   308A      4.091057  
     309A      4.122231   310A      4.145284   311A      4.173680  
     312A      4.174451   313A      4.195903   314A      4.229589  
     315A      4.240047   316A      4.257456   317A      4.283656  
     318A      4.285709   319A      4.301892   320A      4.324587  
     321A      4.349324   322A      4.359560   323A      4.392963  
     324A      4.406674   325A      4.409910   326A      4.436312  
     327A      4.486482   328A      4.504990   329A      4.563090  
     330A      4.600590   331A      4.619136   332A      4.654375  
     333A      4.662564   334A      4.672911   335A      4.693205  
     336A      4.712725   337A      4.731615   338A      4.761641  
     339A      4.785440   340A      4.821735   341A      4.825298  
     342A      4.853334   343A      4.861559   344A      4.876777  
     345A      4.887171   346A      4.892724   347A      4.932856  
     348A      4.937228   349A      4.965828   350A      4.999644  
     351A      5.014546   352A      5.027136   353A      5.027872  
     354A      5.075206   355A      5.076533   356A      5.138961  
     357A      5.152368   358A      5.180916   359A      5.209593  
     360A      5.234610   361A      5.243641   362A      5.252909  
     363A      5.279662   364A      5.281449   365A      5.306869  
     366A      5.313381   367A      5.346741   368A      5.370887  
     369A      5.390902   370A      5.416510   371A      5.447467  
     372A      5.472945   373A      5.488928   374A      5.519519  
     375A      5.530080   376A      5.561646   377A      5.582997  
     378A      5.626946   379A      5.641572   380A      5.649830  
     381A      5.694588   382A      5.732810   383A      5.754000  
     384A      5.787196   385A      5.820546   386A      5.828047  
     387A      5.836030   388A      5.893360   389A      5.934027  
     390A      6.040309   391A      6.052603   392A      6.103871  
     393A      6.114062   394A      6.146150   395A      6.198151  
     396A      6.240225   397A      6.259840   398A      6.278544  
     399A      6.283927   400A      6.358108   401A      6.367506  
     402A      6.454322   403A      6.557368   404A      6.581242  
     405A      6.775902   406A      6.778652   407A      6.832866  
     408A      6.856730   409A      6.937905   410A      6.962919  
     411A     17.932589   412A     18.184629   413A     18.627614  
     414A     19.496037  

    Final Occupation by Irrep:
              A 
    DOCC [    17 ]

  Energy converged.

  @DF-RHF Final Energy:  -157.35065140188877

   => Energetics <=

    Nuclear Repulsion Energy =            132.5372623628575468
    One-Electron Energy =                -473.1812727834519592
    Two-Electron Energy =                 183.2933590187056723
    DFT Exchange-Correlation Energy =       0.0000000000000000
    Empirical Dispersion Energy =           0.0000000000000000
    PCM Polarization Energy =               0.0000000000000000
    EFP Energy =                            0.0000000000000000
    Total Energy =                       -157.3506514018887685



Properties will be evaluated at   0.000000,   0.000000,   0.000000 Bohr

Properties computed using the SCF density matrix

  Nuclear Dipole Moment: (a.u.)
     X:     0.2788      Y:     0.0769      Z:     0.6691

  Electronic Dipole Moment: (a.u.)
     X:    -0.2936      Y:    -0.0811      Z:    -0.7047

  Dipole Moment: (a.u.)
     X:    -0.0147      Y:    -0.0042      Z:    -0.0356     Total:     0.0388

  Dipole Moment: (Debye)
     X:    -0.0375      Y:    -0.0107      Z:    -0.0906     Total:     0.0986


*** tstop() called on gpu-1-17.local at Wed Jun 14 14:32:58 2017
Module time:
	user time   =      95.64 seconds =       1.59 minutes
	system time =       0.48 seconds =       0.01 minutes
	total time  =         97 seconds =       1.62 minutes
Total time:
	user time   =     522.54 seconds =       8.71 minutes
	system time =       4.73 seconds =       0.08 minutes
	total time  =        529 seconds =       8.82 minutes

  //>>>>>>>>>>>>>>>>>>>>>>>>>>>>>>>>>>>//
  //               DFMP2               //
  //<<<<<<<<<<<<<<<<<<<<<<<<<<<<<<<<<<<//

   => Loading Basis Set <=

    Name: (AUG-CC-PVTZ AUX)
    Role: RIFIT
    Keyword: DF_BASIS_MP2
    atoms 1-3, 5-6, 8-9, 11-13 entry H          line    29 file /cbio/jclab/home/chayas/anaconda/envs/py35/share/psi4/basis/aug-cc-pvtz-ri.gbs 
    atoms 4, 7, 10, 14         entry C          line   147 file /cbio/jclab/home/chayas/anaconda/envs/py35/share/psi4/basis/aug-cc-pvtz-ri.gbs 

	 --------------------------------------------------------
	                          DF-MP2                         
	      2nd-Order Density-Fitted Moller-Plesset Theory     
	              RMP2 Wavefunction,   1 Threads             
	                                                         
	        Rob Parrish, Justin Turney, Andy Simmonett,      
	           Ed Hohenstein, and C. David Sherrill          
	 --------------------------------------------------------

   => Auxiliary Basis Set <=

  Basis Set: (AUG-CC-PVTZ AUX)
    Blend: AUG-CC-PVTZ-RI
    Number of shells: 252
    Number of basis function: 884
    Number of Cartesian functions: 1094
    Spherical Harmonics?: true
    Max angular momentum: 4

	 --------------------------------------------------------
	                 NBF =   414, NAUX =   884
	 --------------------------------------------------------
	   CLASS    FOCC     OCC    AOCC    AVIR     VIR    FVIR
	   PAIRS       0      17      17     397     397       0
	 --------------------------------------------------------


         ------------------------------------------------------------
                                     CPHF                           
                                  Rob Parrish                       
         ------------------------------------------------------------

  ==> Geometry <==

    Molecular point group: c1
    Full point group: C1

    Geometry (in Angstrom), charge = 0, multiplicity = 1:

       Center              X                  Y                   Z               Mass       
    ------------   -----------------  -----------------  -----------------  -----------------
           H         -0.604464429844     0.667114050982     1.761282424580     1.007825032070
           H         -1.698543314920     1.808836763300     0.986062695789     1.007825032070
           H         -2.065211158004     0.086597862259     0.963650691246     1.007825032070
           C         -1.268643000245     0.817145219335     0.920017193521    12.000000000000
           H         -1.166356534202     0.812007880864    -1.222560082337     1.007825032070
           H          0.299070349539     1.391826047712    -0.430770697725     1.007825032070
           C         -0.491611573450     0.653604133257    -0.390578145224    12.000000000000
           H         -0.401900491888    -1.419996856986     0.183730022833     1.007825032070
           H          0.032263787584    -1.124034056361    -1.499843582252     1.007825032070
           C          0.126321603526    -0.753985190273    -0.486769814847    12.000000000000
           H          2.039309316947    -1.714887836132    -0.166924348652     1.007825032070
           H          1.718122979170    -0.360783023355     0.911468047217     1.007825032070
           H          2.145119022306    -0.064602994595    -0.772370824439     1.007825032070
           C          1.608954906355    -0.723657503936    -0.102611671963    12.000000000000

  Nuclear repulsion =  132.537262362857547
  Reference energy  = -157.350651401888769

  ==> Basis Set <==

  Basis Set: AUG-CC-PVTZ
    Blend: AUG-CC-PVTZ
    Number of shells: 146
    Number of basis function: 414
    Number of Cartesian functions: 470
    Spherical Harmonics?: true
    Max angular momentum: 3

  ==> CGRSolver (by Rob Parrish) <==

   Number of roots    =         1
   Preconditioning    =    JACOBI
   Convergence cutoff =     1E-06
   Maximum iterations =       100

  ==> CPHFRHamiltonian (by Rob Parrish) <== 

  ==> DFJK: Density-Fitted J/K Matrices <==

    J tasked:                  Yes
    K tasked:                  Yes
    wK tasked:                  No
    OpenMP threads:              1
    Integrals threads:           1
    Memory (MB):               715
    Algorithm:                Core
    Integral Cache:           NONE
    Schwarz Cutoff:          1E-12
    Fitting Condition:       1E-12

   => Auxiliary Basis Set <=

  Basis Set: (AUG-CC-PVTZ AUX)
    Blend: AUG-CC-PVTZ-JKFIT
    Number of shells: 260
    Number of basis function: 876
    Number of Cartesian functions: 1074
    Spherical Harmonics?: true
    Max angular momentum: 4

  ==> CPHF Iterations <==

  => Iterations <=

             Iter  Converged  Remaining    Residual
  CGR           1          0          1   8.501E-02
  CGR           2          0          1   1.361E-02
  CGR           3          0          1   3.343E-03
  CGR           4          0          1   8.352E-04
  CGR           5          0          1   1.703E-04
  CGR           6          0          1   3.259E-05
  CGR           7          0          1   5.978E-06
  CGR           8          0          1   1.224E-06
  CGR           9          1          0   1.790E-07

    CGRSolver converged.

  ==> DFCorrGrad: Density-Fitted Correlated Gradients <==

    OpenMP threads:              1
    Integrals threads:           1
    Memory (MB):               715
    Schwarz Cutoff:          0E+00
    Fitting Condition:       1E-12

   => Auxiliary Basis Set <=

  Basis Set: (AUG-CC-PVTZ AUX)
    Blend: AUG-CC-PVTZ-JKFIT
    Number of shells: 260
    Number of basis function: 876
    Number of Cartesian functions: 1074
    Spherical Harmonics?: true
    Max angular momentum: 4

	-----------------------------------------------------------
	 ==================> DF-MP2 Energies <==================== 
	-----------------------------------------------------------
	 Reference Energy          =    -157.3506514018887685 [Eh]
	 Singles Energy            =      -0.0000000000000000 [Eh]
	 Same-Spin Energy          =      -0.1655434584995866 [Eh]
	 Opposite-Spin Energy      =      -0.6400230232096791 [Eh]
	 Correlation Energy        =      -0.8055664817092656 [Eh]
	 Total Energy              =    -158.1562178835980319 [Eh]
	-----------------------------------------------------------
	 ================> DF-SCS-MP2 Energies <================== 
	-----------------------------------------------------------
	 SCS Same-Spin Scale       =       0.3333333333333333 [-]
	 SCS Opposite-Spin Scale   =       1.2000000000000000 [-]
	 SCS Same-Spin Energy      =      -0.0551811528331955 [Eh]
	 SCS Opposite-Spin Energy  =      -0.7680276278516148 [Eh]
	 SCS Correlation Energy    =      -0.8232087806848103 [Eh]
	 SCS Total Energy          =    -158.1738601825735770 [Eh]
	-----------------------------------------------------------


  -Total Gradient:
     Atom            X                  Y                   Z
    ------   -----------------  -----------------  -----------------
       1       -0.000837191746     0.000727298350    -0.004267819717
       2        0.001748384635    -0.002473747684    -0.002468712026
       3        0.002952466319     0.001952274224    -0.001609619437
       4       -0.006998885575    -0.002703902931     0.011920562976
       5        0.001185026933    -0.003046310843     0.003010867184
       6       -0.001798216470    -0.004029264269     0.003165862769
       7        0.006418840704     0.013341950326    -0.011277921713
       8        0.003134222414     0.004339152496     0.000215737121
       9        0.001070767368     0.003687452816     0.002445037983
      10       -0.011200786259    -0.014652015384    -0.000836812885
      11       -0.003245623435     0.002298439398    -0.000864452335
      12       -0.002261140629    -0.001539223702    -0.003249502322
      13       -0.002994091960    -0.001887658368     0.001377263209
      14        0.012826227702     0.003985555573     0.002439509196


*** tstop() called on gpu-1-17.local at Wed Jun 14 14:38:49 2017
Module time:
	user time   =     444.22 seconds =       7.40 minutes
	system time =       3.39 seconds =       0.06 minutes
	total time  =        448 seconds =       7.47 minutes
Total time:
	user time   =     871.12 seconds =      14.52 minutes
	system time =       7.64 seconds =       0.13 minutes
	total time  =        880 seconds =      14.67 minutes

			-----------------------------------------
			 OPTKING 2.0: for geometry optimizations 
			  - R.A. King,  Bethel University        
			-----------------------------------------

	Previous internal coordinate definitions found.
	---Fragment 1 Geometry and Gradient---
	 H          -1.1422722295        1.2606628558        3.3283414251
	 H          -3.2097816900        3.4182061017        1.8633884449
	 H          -3.9026834952        0.1636462434        1.8210358942
	 C          -2.3973878309        1.5441806753        1.7385805333
	 H          -2.2040944229        1.5344725126       -2.3103037366
	 H           0.5651610551        2.6301700548       -0.8140386448
	 C          -0.9290112376        1.2351328112       -0.7380857280
	 H          -0.7594818623       -2.6834051693        0.3471994255
	 H           0.0609697225       -2.1241165306       -2.8342936126
	 C           0.2387132353       -1.4248255179       -0.9198616398
	 H           3.8537361093       -3.2406683589       -0.3154413039
	 H           3.2467818932       -0.6817811075        1.7224249881
	 H           4.0536874746       -0.1220819671       -1.4595693312
	 C           3.0404841332       -1.3675144964       -0.1939079580
	            -0.0008371917        0.0007272984       -0.0042678197
	             0.0017483846       -0.0024737477       -0.0024687120
	             0.0029524663        0.0019522742       -0.0016096194
	            -0.0069988856       -0.0027039029        0.0119205630
	             0.0011850269       -0.0030463108        0.0030108672
	            -0.0017982165       -0.0040292643        0.0031658628
	             0.0064188407        0.0133419503       -0.0112779217
	             0.0031342224        0.0043391525        0.0002157371
	             0.0010707674        0.0036874528        0.0024450380
	            -0.0112007863       -0.0146520154       -0.0008368129
	            -0.0032456234        0.0022984394       -0.0008644523
	            -0.0022611406       -0.0015392237       -0.0032495023
	            -0.0029940920       -0.0018876584        0.0013772632
	             0.0128262277        0.0039855556        0.0024395092

	---Fragment 1 Intrafragment Coordinates---
	 - Coordinate -           - BOHR/RAD -       - ANG/DEG -
	 R(1,4)           =         2.045247	       1.082298
	 R(2,4)           =         2.046346	       1.082880
	 R(3,4)           =         2.044160	       1.081723
	 R(4,7)           =         2.895776	       1.532378
	 R(5,7)           =         2.046292	       1.082851
	 R(6,7)           =         2.045592	       1.082481
	 R(7,10)          =         2.910670	       1.540260
	 R(8,10)          =         2.045937	       1.082663
	 R(9,10)          =         2.045886	       1.082636
	 R(10,14)         =         2.894860	       1.531894
	 R(11,14)         =         2.045692	       1.082533
	 R(12,14)         =         2.045757	       1.082568
	 R(13,14)         =         2.044403	       1.081851
	 B(1,4,2)         =         1.899872	     108.854667
	 B(1,4,3)         =         1.903849	     109.082495
	 B(1,4,7)         =         1.916462	     109.805168
	 B(2,4,3)         =         1.900413	     108.885627
	 B(2,4,7)         =         1.929657	     110.561192
	 B(3,4,7)         =         1.913279	     109.622839
	 B(4,7,5)         =         1.902384	     108.998561
	 B(4,7,6)         =         1.906421	     109.229885
	 B(4,7,10)        =         1.933043	     110.755217
	 B(5,7,6)         =         1.903774	     109.078197
	 B(5,7,10)        =         1.913132	     109.614387
	 B(6,7,10)        =         1.904844	     109.139546
	 B(7,10,8)        =         1.904729	     109.132919
	 B(7,10,9)        =         1.913406	     109.630097
	 B(7,10,14)       =         1.933211	     110.764839
	 B(8,10,9)        =         1.903778	     109.078447
	 B(8,10,14)       =         1.906121	     109.212679
	 B(9,10,14)       =         1.902350	     108.996600
	 B(10,14,11)      =         1.930219	     110.593414
	 B(10,14,12)      =         1.916803	     109.824695
	 B(10,14,13)      =         1.913964	     109.662082
	 B(11,14,12)      =         1.899154	     108.813486
	 B(11,14,13)      =         1.900761	     108.905561
	 B(12,14,13)      =         1.902594	     109.010609
	 D(1,4,7,5)       =        -3.135769	    -179.666343
	 D(1,4,7,6)       =        -1.057219	     -60.574180
	 D(1,4,7,10)      =         1.041265	      59.660092
	 D(2,4,7,5)       =        -1.039134	     -59.537986
	 D(2,4,7,6)       =         1.039416	      59.554176
	 D(2,4,7,10)      =         3.137900	     179.788449
	 D(3,4,7,5)       =         1.056132	      60.511884
	 D(3,4,7,6)       =         3.134682	     179.604047
	 D(3,4,7,10)      =        -1.050019	     -60.161680
	 D(4,7,10,8)      =         0.357575	      20.487526
	 D(4,7,10,9)      =         2.441679	     139.897919
	 D(4,7,10,14)     =        -1.741508	     -99.781068
	 D(5,7,10,8)      =        -1.742181	     -99.819647
	 D(5,7,10,9)      =         0.341923	      19.590746
	 D(5,7,10,14)     =         2.441921	     139.911760
	 D(6,7,10,8)      =         2.456999	     140.775672
	 D(6,7,10,9)      =        -1.742082	     -99.813935
	 D(6,7,10,14)     =         0.357916	      20.507078
	 D(7,10,14,11)    =         3.137212	     179.749014
	 D(7,10,14,12)    =         1.040894	      59.638820
	 D(7,10,14,13)    =        -1.049483	     -60.130955
	 D(8,10,14,11)    =         1.038959	      59.527985
	 D(8,10,14,12)    =        -1.057359	     -60.582209
	 D(8,10,14,13)    =         3.135449	     179.648016
	 D(9,10,14,11)    =        -1.039400	     -59.553208
	 D(9,10,14,12)    =        -3.135718	    -179.663402
	 D(9,10,14,13)    =         1.057090	      60.566823

	Current energy   :      -158.1562178836

	Energy change for the previous step:
		Projected    :        -0.0046606337
		Actual       :        -0.0028841522

	Performing BFGS update.
	Previous computed or guess Hessian on step 1.
	Steps to be used in Hessian update: 1
	Adding user-defined constraint: Fragment 1; Coordinate 49:
		Value =    -1.741508; Fixed value    =    -1.745330
		Force =    -0.002006; Force constant =     0.525000
	Removing off-diagonal coupling between coordinate 49 and others.
	Taking RFO optimization step.
	Going to follow RFO solution 1.
	Using RFO vector 1.

	Determining step-restricting scale parameter for RS-RFO.
	Maximum step size allowed    0.10000

	 Iter      |step|        alpha        rfo_root  
	------------------------------------------------
	    0     0.21895       1.00000           1
	    1     0.16185       3.09688           1
	    2     0.13032       7.75060           1
	    3     0.11051      15.72176           1
	    4     0.10170      21.81104           1
	    5     0.10005      23.19497           1
	    6     0.10000      23.24210           1
	------------------------------------------------
	Norm of target step-size    0.10000
	Projected energy change by RFO approximation:        -0.0008494534

	Back-transformation to cartesian coordinates...
	Could not converge backtransformation.
	Using first guess instead.

	--- Internal Coordinate Step in ANG or DEG, aJ/ANG or AJ/DEG ---
	 ---------------------------------------------------------------------------
	   Coordinate                Previous        Force       Change         New 
	   ----------                --------       ------       ------       ------
	    1 R(1,4)          =      1.082298     0.032394     0.006277     1.088576
	    2 R(2,4)          =      1.082880     0.025623     0.004699     1.087579
	    3 R(3,4)          =      1.081723     0.029310     0.005636     1.087358
	    4 R(4,7)          =      1.532378    -0.036088    -0.009575     1.522804
	    5 R(5,7)          =      1.082851     0.028814     0.005382     1.088233
	    6 R(6,7)          =      1.082481     0.034429     0.006724     1.089205
	    7 R(7,10)         =      1.540260    -0.018760    -0.005701     1.534559
	    8 R(8,10)         =      1.082663     0.033489     0.006559     1.089222
	    9 R(9,10)         =      1.082636     0.030000     0.005590     1.088227
	   10 R(10,14)        =      1.531894    -0.034342    -0.009145     1.522749
	   11 R(11,14)        =      1.082533     0.027546     0.005031     1.087564
	   12 R(12,14)        =      1.082568     0.031207     0.006057     1.088625
	   13 R(13,14)        =      1.081851     0.028724     0.005521     1.087372
	   14 B(1,4,2)        =    108.854667    -0.000166    -0.750259   108.104408
	   15 B(1,4,3)        =    109.082495    -0.000147    -0.827053   108.255442
	   16 B(1,4,7)        =    109.805168     0.000140     0.690974   110.496141
	   17 B(2,4,3)        =    108.885627    -0.000138    -0.595784   108.289842
	   18 B(2,4,7)        =    110.561192     0.000206     0.909289   111.470481
	   19 B(3,4,7)        =    109.622839     0.000097     0.503777   110.126616
	   20 B(4,7,5)        =    108.998561    -0.000072    -0.170400   108.828161
	   21 B(4,7,6)        =    109.229885    -0.000030     0.138349   109.368234
	   22 B(4,7,10)       =    110.755217     0.000235     1.054151   111.809367
	   23 B(5,7,6)        =    109.078197    -0.000088    -1.222382   107.855815
	   24 B(5,7,10)       =    109.614387     0.000013     0.250091   109.864477
	   25 B(6,7,10)       =    109.139546    -0.000063    -0.109116   109.030430
	   26 B(7,10,8)       =    109.132919    -0.000062    -0.105345   109.027574
	   27 B(7,10,9)       =    109.630097     0.000012     0.240279   109.870376
	   28 B(7,10,14)      =    110.764839     0.000233     1.045240   111.810079
	   29 B(8,10,9)       =    109.078447    -0.000089    -1.223780   107.854667
	   30 B(8,10,14)      =    109.212679    -0.000029     0.149452   109.362130
	   31 B(9,10,14)      =    108.996600    -0.000070    -0.165057   108.831543
	   32 B(10,14,11)     =    110.593414     0.000203     0.887169   111.480583
	   33 B(10,14,12)     =    109.824695     0.000135     0.673394   110.498089
	   34 B(10,14,13)     =    109.662082     0.000092     0.478922   110.141004
	   35 B(11,14,12)     =    108.813486    -0.000162    -0.723524   108.089962
	   36 B(11,14,13)     =    108.905561    -0.000137    -0.602933   108.302628
	   37 B(12,14,13)     =    109.010609    -0.000140    -0.781335   108.229274
	   38 D(1,4,7,5)      =   -179.666343     0.000015     0.384484  -179.281859
	   39 D(1,4,7,6)      =    -60.574180    -0.000023    -1.110312   -61.684492
	   40 D(1,4,7,10)     =     59.660092    -0.000012    -0.484325    59.175767
	   41 D(2,4,7,5)      =    -59.537986     0.000018     0.488839   -59.049147
	   42 D(2,4,7,6)      =     59.554176    -0.000020    -1.005957    58.548220
[...]
  CGR           8          0          1   1.107E-06
  CGR           9          1          0   1.486E-07

    CGRSolver converged.

  ==> DFCorrGrad: Density-Fitted Correlated Gradients <==

    OpenMP threads:              1
    Integrals threads:           1
    Memory (MB):               715
    Schwarz Cutoff:          0E+00
    Fitting Condition:       1E-12

   => Auxiliary Basis Set <=

  Basis Set: (AUG-CC-PVTZ AUX)
    Blend: AUG-CC-PVTZ-JKFIT
    Number of shells: 260
    Number of basis function: 876
    Number of Cartesian functions: 1074
    Spherical Harmonics?: true
    Max angular momentum: 4

	-----------------------------------------------------------
	 ==================> DF-MP2 Energies <==================== 
	-----------------------------------------------------------
	 Reference Energy          =    -157.3518192462442187 [Eh]
	 Singles Energy            =      -0.0000000000000002 [Eh]
	 Same-Spin Energy          =      -0.1655537926795810 [Eh]
	 Opposite-Spin Energy      =      -0.6399888238020520 [Eh]
	 Correlation Energy        =      -0.8055426164816333 [Eh]
	 Total Energy              =    -158.1573618627258497 [Eh]
	-----------------------------------------------------------
	 ================> DF-SCS-MP2 Energies <================== 
	-----------------------------------------------------------
	 SCS Same-Spin Scale       =       0.3333333333333333 [-]
	 SCS Opposite-Spin Scale   =       1.2000000000000000 [-]
	 SCS Same-Spin Energy      =      -0.0551845975598603 [Eh]
	 SCS Opposite-Spin Energy  =      -0.7679865885624624 [Eh]
	 SCS Correlation Energy    =      -0.8231711861223230 [Eh]
	 SCS Total Energy          =    -158.1749904323665419 [Eh]
	-----------------------------------------------------------


  -Total Gradient:
     Atom            X                  Y                   Z
    ------   -----------------  -----------------  -----------------
       1       -0.000009271533     0.000005156663    -0.000004911213
       2        0.000001748472    -0.000004933619    -0.000002483663
       3        0.000006564838     0.000005956986    -0.000003493797
       4       -0.002058423721    -0.000869876107    -0.001120172705
       5       -0.000000255315     0.000004613440     0.000007669670
       6       -0.000008893058    -0.000002719321    -0.000002504241
       7        0.003054454640     0.001379402488     0.000655913669
       8        0.000004252086     0.000001354006    -0.000008377215
       9        0.000006078448    -0.000002970557     0.000006254846
      10       -0.001589332699    -0.000976367095     0.002860210994
      11       -0.000003611025     0.000004862380    -0.000001473247
      12        0.000003458972    -0.000006692055    -0.000008708693
      13       -0.000006598970    -0.000005971277     0.000003278071
      14        0.000599828871     0.000468184067    -0.002381202475


*** tstop() called on gpu-1-17.local at Wed Jun 14 15:13:57 2017
Module time:
	user time   =     297.89 seconds =       4.96 minutes
	system time =       3.55 seconds =       0.06 minutes
	total time  =        301 seconds =       5.02 minutes
Total time:
	user time   =    2955.02 seconds =      49.25 minutes
	system time =      28.51 seconds =       0.48 minutes
	total time  =       2988 seconds =      49.80 minutes

			-----------------------------------------
			 OPTKING 2.0: for geometry optimizations 
			  - R.A. King,  Bethel University        
			-----------------------------------------

	Previous internal coordinate definitions found.
	---Fragment 1 Geometry and Gradient---
	 H          -1.2160764144        1.1861921574        3.3654590776
	 H          -3.1889692957        3.4352014473        1.9142193036
	 H          -3.9820519548        0.2043718727        1.8075307581
	 C          -2.4192156152        1.5380094903        1.7327666653
	 H          -2.2245452580        1.5221985310       -2.2955878949
	 H           0.5122117511        2.6599361398       -0.8479478005
	 C          -0.9485078244        1.2133719722       -0.7098261728
	 H          -0.7436701875       -2.7236269470        0.2923248140
	 H           0.0847243352       -2.1110040105       -2.8411083433
	 C           0.2703842189       -1.3999688564       -0.9180272120
	 H           3.8766925620       -3.2459617477       -0.2633241485
	 H           3.3187197803       -0.6076187027        1.6819926528
	 H           4.1029020003       -0.1711154850       -1.5174235765
	 C           3.0519923585       -1.3638905932       -0.2137697088
	            -0.0000092715        0.0000051567       -0.0000049112
	             0.0000017485       -0.0000049336       -0.0000024837
	             0.0000065648        0.0000059570       -0.0000034938
	            -0.0020584237       -0.0008698761       -0.0011201727
	            -0.0000002553        0.0000046134        0.0000076697
	            -0.0000088931       -0.0000027193       -0.0000025042
	             0.0030544546        0.0013794025        0.0006559137
	             0.0000042521        0.0000013540       -0.0000083772
	             0.0000060784       -0.0000029706        0.0000062548
	            -0.0015893327       -0.0009763671        0.0028602110
	            -0.0000036110        0.0000048624       -0.0000014732
	             0.0000034590       -0.0000066921       -0.0000087087
	            -0.0000065990       -0.0000059713        0.0000032781
	             0.0005998289        0.0004681841       -0.0023812025

	---Fragment 1 Intrafragment Coordinates---
	 - Coordinate -           - BOHR/RAD -       - ANG/DEG -
	 R(1,4)           =         2.058398	       1.089258
	 R(2,4)           =         2.055428	       1.087686
	 R(3,4)           =         2.055878	       1.087924
	 R(4,7)           =         2.869605	       1.518529
	 R(5,7)           =         2.058710	       1.089422
	 R(6,7)           =         2.060419	       1.090327
	 R(7,10)          =         2.891124	       1.529917
	 R(8,10)          =         2.060420	       1.090327
	 R(9,10)          =         2.058709	       1.089422
	 R(10,14)         =         2.869603	       1.518529
	 R(11,14)         =         2.055426	       1.087685
	 R(12,14)         =         2.058399	       1.089258
	 R(13,14)         =         2.055879	       1.087924
	 B(1,4,2)         =         1.882450	     107.856426
	 B(1,4,3)         =         1.880323	     107.734593
	 B(1,4,7)         =         1.935053	     110.870382
	 B(2,4,3)         =         1.886893	     108.111027
	 B(2,4,7)         =         1.951419	     111.808072
	 B(3,4,7)         =         1.925347	     110.314268
	 B(4,7,5)         =         1.897594	     108.724119
	 B(4,7,6)         =         1.918752	     109.936419
	 B(4,7,10)        =         1.960195	     112.310896
	 B(5,7,6)         =         1.857161	     106.407463
	 B(5,7,10)        =         1.919248	     109.964817
	 B(6,7,10)        =         1.908054	     109.323428
	 B(7,10,8)        =         1.908054	     109.323440
	 B(7,10,9)        =         1.919249	     109.964844
	 B(7,10,14)       =         1.960194	     112.310870
	 B(8,10,9)        =         1.857161	     106.407482
	 B(8,10,14)       =         1.918753	     109.936425
	 B(9,10,14)       =         1.897593	     108.724084
	 B(10,14,11)      =         1.951418	     111.808037
	 B(10,14,12)      =         1.935053	     110.870361
	 B(10,14,13)      =         1.925347	     110.314266
	 B(11,14,12)      =         1.882450	     107.856452
	 B(11,14,13)      =         1.886893	     108.111023
	 B(12,14,13)      =         1.880324	     107.734633
	 D(1,4,7,5)       =         3.111396	     178.269860
	 D(1,4,7,6)       =        -1.145164	     -65.613077
	 D(1,4,7,10)      =         0.983430	      56.346361
	 D(2,4,7,5)       =        -1.070429	     -61.331076
	 D(2,4,7,6)       =         0.956196	      54.785987
	 D(2,4,7,10)      =         3.084790	     176.745425
	 D(3,4,7,5)       =         1.029929	      59.010583
	 D(3,4,7,6)       =         3.056554	     175.127646
	 D(3,4,7,10)      =        -1.098038	     -62.912916
	 D(4,7,10,8)      =         0.396772	      22.733352
	 D(4,7,10,9)      =         2.429695	     139.211254
	 D(4,7,10,14)     =        -1.737897	     -99.574173
	 D(5,7,10,8)      =        -1.718822	     -98.481266
	 D(5,7,10,9)      =         0.314101	      17.996636
	 D(5,7,10,14)     =         2.429694	     139.211210
	 D(6,7,10,8)      =         2.531441	     145.040878
	 D(6,7,10,9)      =        -1.718822	     -98.481221
	 D(6,7,10,14)     =         0.396772	      22.733353
	 D(7,10,14,11)    =         3.084791	     176.745504
	 D(7,10,14,12)    =         0.983431	      56.346445
	 D(7,10,14,13)    =        -1.098037	     -62.912867
	 D(8,10,14,11)    =         0.956197	      54.786064
	 D(8,10,14,12)    =        -1.145163	     -65.612996
	 D(8,10,14,13)    =         3.056555	     175.127693
	 D(9,10,14,11)    =        -1.070428	     -61.331005
	 D(9,10,14,12)    =         3.111397	     178.269935
	 D(9,10,14,13)    =         1.029930	      59.010624

	Current energy   :      -158.1573618627

	Energy change for the previous step:
		Projected    :        -0.0000005222
		Actual       :         0.0000003716

	Performing BFGS update.
	Previous computed or guess Hessian on step 1.
	Steps to be used in Hessian update: 7 6
	Adding user-defined constraint: Fragment 1; Coordinate 49:
		Value =    -1.737897; Fixed value    =    -1.745330
		Force =    -0.005017; Force constant =     0.675000
	Removing off-diagonal coupling between coordinate 49 and others.
	Taking RFO optimization step.
	Going to follow RFO solution 1.
	Rejecting RFO root 1 because normalization gives large value.
	Using RFO vector 2.
	Norm of target step-size    0.00398
	Projected energy change by RFO approximation:         0.0000001374

	Back-transformation to cartesian coordinates...
	Successfully converged to displaced geometry.

	--- Internal Coordinate Step in ANG or DEG, aJ/ANG or AJ/DEG ---
	 ---------------------------------------------------------------------------
	   Coordinate                Previous        Force       Change         New 
	   ----------                --------       ------       ------       ------
	    1 R(1,4)          =      1.089258     0.000084     0.000016     1.089273
	    2 R(2,4)          =      1.087686     0.000045     0.000012     1.087697
	    3 R(3,4)          =      1.087924     0.000074     0.000023     1.087947
	    4 R(4,7)          =      1.518529     0.000041    -0.000030     1.518500
	    5 R(5,7)          =      1.089422     0.000042     0.000001     1.089423
	    6 R(6,7)          =      1.090327     0.000066     0.000022     1.090349
	    7 R(7,10)         =      1.529917    -0.000151    -0.000087     1.529829
	    8 R(8,10)         =      1.090327     0.000065     0.000021     1.090348
	    9 R(9,10)         =      1.089422     0.000044     0.000001     1.089423
	   10 R(10,14)        =      1.518529     0.000045    -0.000028     1.518501
	   11 R(11,14)        =      1.087685     0.000048     0.000013     1.087698
	   12 R(12,14)        =      1.089258     0.000083     0.000015     1.089273
	   13 R(13,14)        =      1.087924     0.000073     0.000023     1.087947
	   14 B(1,4,2)        =    107.856426     0.000000    -0.001820   107.854606
	   15 B(1,4,3)        =    107.734593     0.000000    -0.001640   107.732952
	   16 B(1,4,7)        =    110.870382    -0.000001     0.000888   110.871270
	   17 B(2,4,3)        =    108.111027    -0.000000    -0.001846   108.109181
	   18 B(2,4,7)        =    111.808072     0.000000    -0.002984   111.805088
	   19 B(3,4,7)        =    110.314268     0.000000     0.007181   110.321450
	   20 B(4,7,5)        =    108.724119    -0.000006     0.013322   108.737441
	   21 B(4,7,6)        =    109.936419     0.000007    -0.004560   109.931858
	   22 B(4,7,10)       =    112.310896    -0.000002     0.000032   112.310928
	   23 B(5,7,6)        =    106.407463    -0.000000     0.000467   106.407931
	   24 B(5,7,10)       =    109.964817     0.000000     0.004444   109.969261
	   25 B(6,7,10)       =    109.323428     0.000000    -0.013530   109.309898
	   26 B(7,10,8)       =    109.323440     0.000000    -0.013560   109.309881
	   27 B(7,10,9)       =    109.964844     0.000000     0.004382   109.969226
	   28 B(7,10,14)      =    112.310870    -0.000002     0.000064   112.310934
	   29 B(8,10,9)       =    106.407482    -0.000000     0.000449   106.407932
	   30 B(8,10,14)      =    109.936425     0.000007    -0.004569   109.931856
	   31 B(9,10,14)      =    108.724084    -0.000006     0.013405   108.737489
	   32 B(10,14,11)     =    111.808037     0.000000    -0.002986   111.805052
	   33 B(10,14,12)     =    110.870361    -0.000001     0.000830   110.871191
	   34 B(10,14,13)     =    110.314266     0.000000     0.007059   110.321325
	   35 B(11,14,12)     =    107.856452     0.000000    -0.001757   107.854695
	   36 B(11,14,13)     =    108.111023    -0.000000    -0.001859   108.109164
	   37 B(12,14,13)     =    107.734633     0.000000    -0.001496   107.733137
	   38 D(1,4,7,5)      =    178.269860    -0.000000     0.054069   178.323928
	   39 D(1,4,7,6)      =    -65.613077    -0.000000     0.059692   -65.553385
	   40 D(1,4,7,10)     =     56.346361     0.000001     0.039174    56.385536
	   41 D(2,4,7,5)      =    -61.331076    -0.000000     0.050345   -61.280731
	   42 D(2,4,7,6)      =     54.785987    -0.000000     0.055969    54.841955
	   43 D(2,4,7,10)     =    176.745425     0.000001     0.035451   176.780877
	   44 D(3,4,7,5)      =     59.010583    -0.000000     0.050918    59.061500
	   45 D(3,4,7,6)      =    175.127646    -0.000000     0.056541   175.184186
	   46 D(3,4,7,10)     =    -62.912916     0.000001     0.036023   -62.876892
	   47 D(4,7,10,8)     =     22.733352    -0.000002    -0.016761    22.716590
	   48 D(4,7,10,9)     =    139.211254    -0.000002    -0.021580   139.189673
	   49 D(4,7,10,14)    =    -99.574173    -0.000004    -0.001397   -99.575570
	   50 D(5,7,10,8)     =    -98.481266     0.000000    -0.036861   -98.518127
	   51 D(5,7,10,9)     =     17.996636     0.000000    -0.041680    17.954956
	   52 D(5,7,10,14)    =    139.211210    -0.000002    -0.021497   139.189713
	   53 D(6,7,10,8)     =    145.040878    -0.000000    -0.032116   145.008762
	   54 D(6,7,10,9)     =    -98.481221     0.000000    -0.036935   -98.518156
	   55 D(6,7,10,14)    =     22.733353    -0.000002    -0.016752    22.716602
	   56 D(7,10,14,11)   =    176.745504     0.000001     0.035311   176.780815
	   57 D(7,10,14,12)   =     56.346445     0.000001     0.038997    56.385442
	   58 D(7,10,14,13)   =    -62.912867     0.000001     0.035782   -62.877085
	   59 D(8,10,14,11)   =     54.786064    -0.000000     0.055850    54.841914
	   60 D(8,10,14,12)   =    -65.612996    -0.000000     0.059536   -65.553460
	   61 D(8,10,14,13)   =    175.127693    -0.000000     0.056321   175.184013
	   62 D(9,10,14,11)   =    -61.331005    -0.000000     0.050206   -61.280800
	   63 D(9,10,14,12)   =    178.269935    -0.000000     0.053891   178.323827
	   64 D(9,10,14,13)   =     59.010624    -0.000000     0.050676    59.061300
	 ---------------------------------------------------------------------------
	Successfully symmetrized geometry.
	 Forces used to impose fixed constraints are not included.
	  Forces zeroed: 49 

  ==> Convergence Check <==

  Measures of convergence in internal coordinates in au.
  Criteria marked as inactive (o), active & met (*), and active & unmet ( ).
  ---------------------------------------------------------------------------------------------
   Step     Total Energy     Delta E     MAX Force     RMS Force      MAX Disp      RMS Disp   
  ---------------------------------------------------------------------------------------------
    Convergence Criteria    1.00e-06 *    3.00e-04 *             o    1.20e-03 *             o
  ---------------------------------------------------------------------------------------------
      8    -158.15736186    3.72e-07 *    1.10e-04 *    3.85e-05 o    1.04e-03 *    4.97e-04 o  ~
  ---------------------------------------------------------------------------------------------


  **** Optimization is complete! (in 8 steps) ****

  ==> Optimization Summary <==

  Measures of convergence in internal coordinates in au.
  --------------------------------------------------------------------------------------------------------------- ~
   Step         Total Energy             Delta E       MAX Force       RMS Force        MAX Disp        RMS Disp  ~
  --------------------------------------------------------------------------------------------------------------- ~
      1    -158.153333731440   -158.153333731440      0.01297805      0.00543561      0.02521982      0.01251190  ~
      2    -158.156217883598     -0.002884152158      0.00438028      0.00207614      0.03032692      0.01251551  ~
      3    -158.157133264583     -0.000915380985      0.00130063      0.00055305      0.03060186      0.01251947  ~
      4    -158.157327333715     -0.000194069132      0.00073827      0.00017011      0.02667034      0.01249986  ~
      5    -158.157364270216     -0.000036936501      0.00027630      0.00006842      0.01174914      0.00574812  ~
      6    -158.157369381623     -0.000005111407      0.00035162      0.00007675      0.00371515      0.00193000  ~
      7    -158.157362234339      0.000007147284      0.00018530      0.00004774      0.00360277      0.00175963  ~
      8    -158.157361862726      0.000000371613      0.00021960      0.00004731      0.00104182      0.00049739  ~
  --------------------------------------------------------------------------------------------------------------- ~

	Writing optimization data to binary file.
	Final energy is   -158.1573618627258
	Final (previous) structure:
	Cartesian Geometry (in Angstrom)
	    H    -0.6435199224   0.6277058547   1.7809242403
	    H    -1.6875298702   1.8178303128   1.0129612277
	    H    -2.1072111379   0.1081489371   0.9565040810
	    C    -1.2801937662   0.8138795689   0.9169406271
	    H    -1.1771786500   0.8055127695  -1.2147727943
	    H     0.2710507847   1.4075775815  -0.4487146501
	    C    -0.5019287228   0.6420887932  -0.3756238327
	    H    -0.3935333139  -1.4412813050   0.1546916291
	    H     0.0448341872  -1.1170952096  -1.5034497824
	    C     0.1430811662  -0.7408316116  -0.4857990775
	    H     2.0514573485  -1.7176889768  -0.1393451379
	    H     1.7561908694  -0.3215379690   0.8900721769
	    H     2.1711622276  -0.0905504147  -0.8029859725
	    C     1.6150447969  -0.7217398169  -0.1131220578
	Saving final (previous) structure.
			--------------------------
			 OPTKING Finished Execution 
			--------------------------

    Final optimized geometry and variables:
    Molecular point group: c1
    Full point group: C1

    Geometry (in Angstrom), charge = 0, multiplicity = 1:

    H           -0.643519922398     0.627705854711     1.780924240326
    H           -1.687529870197     1.817830312822     1.012961227696
    H           -2.107211137907     0.108148937093     0.956504081022
    C           -1.280193766204     0.813879568857     0.916940627067
    H           -1.177178650005     0.805512769542    -1.214772794320
    H            0.271050784650     1.407577581464    -0.448714650081
    C           -0.501928722821     0.642088793206    -0.375623832683
    H           -0.393533313919    -1.441281305037     0.154691629096
    H            0.044834187200    -1.117095209604    -1.503449782399
    C            0.143081166217    -0.740831611553    -0.485799077471
    H            2.051457348504    -1.717688976816    -0.139345137871
    H            1.756190869410    -0.321537969008     0.890072176898
    H            2.171162227642    -0.090550414679    -0.802985972471
    C            1.615044796901    -0.721739816916    -0.113122057760

	Cleaning optimization helper files.

*** Psi4 exiting successfully. Buy a developer a beer!
