
    -----------------------------------------------------------------------
          Psi4: An Open-Source Ab Initio Electronic Structure Package
                               Psi4 1.1 release

                         Git: Rev {HEAD} add49b9 


    R. M. Parrish, L. A. Burns, D. G. A. Smith, A. C. Simmonett,
    A. E. DePrince III, E. G. Hohenstein, U. Bozkaya, A. Yu. Sokolov,
    R. Di Remigio, R. M. Richard, J. F. Gonthier, A. M. James,
    H. R. McAlexander, A. Kumar, M. Saitow, X. Wang, B. P. Pritchard,
    P. Verma, H. F. Schaefer III, K. Patkowski, R. A. King, E. F. Valeev,
    F. A. Evangelista, J. M. Turney, T. D. Crawford, and C. D. Sherrill,
    J. Chem. Theory Comput. in press (2017).
    (doi: 10.1021/acs.jctc.7b00174)

    -----------------------------------------------------------------------


    Psi4 started on: Wednesday, 14 June 2017 02:53PM

    Process ID:  16311
    PSIDATADIR: /cbio/jclab/home/chayas/anaconda/envs/py35/share/psi4
    Memory:     500.0 MiB
    Threads:    1
    
  ==> Input File <==

--------------------------------------------------------------------------

memory 1000 mb

molecule butane {
  symmetry C1
  0 1 
  H      1.604   0.760   -8.260
  H      1.745   2.388   -8.880
  H      2.043   1.024   -9.930
  C      2.142   1.395   -8.932
  H      4.169   2.051   -9.210
  H      3.731   1.788   -7.539
  C      3.631   1.416   -8.537
  H      3.665   -0.647   -7.940
  H      4.104   -0.384   -9.610
  C      4.203   -0.012   -8.612
  H      6.276   0.337   -9.051
  H      5.998   -0.975   -7.931
  H      5.834   0.680   -7.397
  C      5.691   0.009   -8.218
  units Angstrom
}

dih_string = "7 10 14 13 40"
set optking fixed_dihedral = $dih_string

optimize('MP2/aug-cc-pvtz')
--------------------------------------------------------------------------

  Memory set to 953.674 MiB by Python driver.
gradient() will perform analytic gradient computation.

*** tstart() called on gpu-1-16.local
*** at Wed Jun 14 14:53:55 2017

    SCF Algorithm Type (re)set to DF.

*** tstart() called on gpu-1-16.local
*** at Wed Jun 14 14:53:55 2017

   => Loading Basis Set <=

    Name: AUG-CC-PVTZ
    Role: ORBITAL
    Keyword: BASIS
    atoms 1-3, 5-6, 8-9, 11-13 entry H          line    34 file /cbio/jclab/home/chayas/anaconda/envs/py35/share/psi4/basis/aug-cc-pvtz.gbs 
    atoms 4, 7, 10, 14         entry C          line   221 file /cbio/jclab/home/chayas/anaconda/envs/py35/share/psi4/basis/aug-cc-pvtz.gbs 


         ---------------------------------------------------------
                                   SCF
            by Justin Turney, Rob Parrish, and Andy Simmonett
                              RHF Reference
                        1 Threads,    953 MiB Core
         ---------------------------------------------------------

  ==> Geometry <==

    Molecular point group: c1
    Full point group: C1

    Geometry (in Angstrom), charge = 0, multiplicity = 1:

       Center              X                  Y                   Z               Mass       
    ------------   -----------------  -----------------  -----------------  -----------------
           H         -2.312776029323     0.057965294236     0.314758676441     1.007825032070
           H         -2.171776029323     1.685965294236    -0.305241323559     1.007825032070
           H         -1.873776029323     0.321965294236    -1.355241323559     1.007825032070
           C         -1.774776029323     0.692965294236    -0.357241323559    12.000000000000
           H          0.252223970677     1.348965294236    -0.635241323559     1.007825032070
           H         -0.185776029323     1.085965294236     1.035758676441     1.007825032070
           C         -0.285776029323     0.713965294236     0.037758676441    12.000000000000
           H         -0.251776029323    -1.349034705764     0.634758676441     1.007825032070
           H          0.187223970677    -1.086034705764    -1.035241323559     1.007825032070
           C          0.286223970677    -0.714034705764    -0.037241323559    12.000000000000
           H          2.359223970677    -0.365034705764    -0.476241323559     1.007825032070
           H          2.081223970677    -1.677034705764     0.643758676441     1.007825032070
           H          1.917223970677    -0.022034705764     1.177758676441     1.007825032070
           C          1.774223970677    -0.693034705764     0.356758676441    12.000000000000

  Running in c1 symmetry.

  Rotational constants: A =      0.76951  B =      0.12465  C =      0.11638 [cm^-1]
  Rotational constants: A =  23069.22975  B =   3736.82106  C =   3488.99983 [MHz]
  Nuclear repulsion =  131.829911309560828

  Charge       = 0
  Multiplicity = 1
  Electrons    = 34
  Nalpha       = 17
  Nbeta        = 17

  ==> Algorithm <==

  SCF Algorithm Type is DF.
  DIIS enabled.
  MOM disabled.
  Fractional occupation disabled.
  Guess Type is SAD.
  Energy threshold   = 1.00e-10
  Density threshold  = 1.00e-10
  Integral threshold = 0.00e+00

  ==> Primary Basis <==

  Basis Set: AUG-CC-PVTZ
    Blend: AUG-CC-PVTZ
    Number of shells: 146
    Number of basis function: 414
    Number of Cartesian functions: 470
    Spherical Harmonics?: true
    Max angular momentum: 3

   => Loading Basis Set <=

    Name: (AUG-CC-PVTZ AUX)
    Role: JKFIT
    Keyword: DF_BASIS_SCF
    atoms 1-3, 5-6, 8-9, 11-13 entry H          line    69 file /cbio/jclab/home/chayas/anaconda/envs/py35/share/psi4/basis/aug-cc-pvtz-jkfit.gbs 
    atoms 4, 7, 10, 14         entry C          line   161 file /cbio/jclab/home/chayas/anaconda/envs/py35/share/psi4/basis/aug-cc-pvtz-jkfit.gbs 

  ==> Pre-Iterations <==

   -------------------------------------------------------
    Irrep   Nso     Nmo     Nalpha   Nbeta   Ndocc  Nsocc
   -------------------------------------------------------
     A        414     414       0       0       0       0
   -------------------------------------------------------
    Total     414     414      17      17      17       0
   -------------------------------------------------------

  ==> Integral Setup <==

  ==> DFJK: Density-Fitted J/K Matrices <==

    J tasked:                  Yes
    K tasked:                  Yes
    wK tasked:                  No
    OpenMP threads:              1
    Integrals threads:           1
    Memory (MB):               715
    Algorithm:                Core
    Integral Cache:           NONE
    Schwarz Cutoff:          1E-12
    Fitting Condition:       1E-12

   => Auxiliary Basis Set <=

  Basis Set: (AUG-CC-PVTZ AUX)
    Blend: AUG-CC-PVTZ-JKFIT
    Number of shells: 260
    Number of basis function: 876
    Number of Cartesian functions: 1074
    Spherical Harmonics?: true
    Max angular momentum: 4

  Minimum eigenvalue in the overlap matrix is 8.3428506948E-06.
  Using Symmetric Orthogonalization.

  SCF Guess: Superposition of Atomic Densities via on-the-fly atomic UHF.

  ==> Iterations <==

                           Total Energy        Delta E     RMS |[F,P]|

   @DF-RHF iter   0:  -159.08638955412428   -1.59086e+02   9.62810e-03 
   @DF-RHF iter   1:  -157.26119762724878    1.82519e+00   8.09705e-04 
   @DF-RHF iter   2:  -157.34238026384176   -8.11826e-02   2.31767e-04 DIIS
   @DF-RHF iter   3:  -157.35034472156423   -7.96446e-03   8.84136e-05 DIIS
   @DF-RHF iter   4:  -157.35133062233777   -9.85901e-04   1.99588e-05 DIIS
   @DF-RHF iter   5:  -157.35140117283356   -7.05505e-05   3.82526e-06 DIIS
   @DF-RHF iter   6:  -157.35140456323944   -3.39041e-06   7.44438e-07 DIIS
   @DF-RHF iter   7:  -157.35140466637631   -1.03137e-07   1.64517e-07 DIIS
   @DF-RHF iter   8:  -157.35140467108744   -4.71113e-09   3.62816e-08 DIIS
   @DF-RHF iter   9:  -157.35140467132425   -2.36810e-10   1.04537e-08 DIIS
   @DF-RHF iter  10:  -157.35140467134408   -1.98384e-11   2.29108e-09 DIIS
   @DF-RHF iter  11:  -157.35140467134525   -1.16529e-12   4.05450e-10 DIIS
   @DF-RHF iter  12:  -157.35140467134786   -2.61480e-12   1.02503e-10 DIIS
   @DF-RHF iter  13:  -157.35140467134678    1.08002e-12   3.17943e-11 DIIS

  ==> Post-Iterations <==

    Orbital Energies (a.u.)
    -----------------------

    Doubly Occupied:                                                      

       1A    -11.207142     2A    -11.206227     3A    -11.198657  
       4A    -11.198154     5A     -1.070702     6A     -0.981153  
       7A     -0.861523     8A     -0.795041     9A     -0.647347  
      10A     -0.587594    11A     -0.575769    12A     -0.570809  
      13A     -0.514040    14A     -0.503705    15A     -0.475340  
      16A     -0.468590    17A     -0.441384  

    Virtual:                                                              

      18A      0.032283    19A      0.037236    20A      0.039543  
      21A      0.040790    22A      0.057058    23A      0.058518  
      24A      0.059790    25A      0.061039    26A      0.081900  
      27A      0.083314    28A      0.098536    29A      0.112471  
      30A      0.123182    31A      0.130716    32A      0.136171  
      33A      0.142058    34A      0.143281    35A      0.146384  
      36A      0.148372    37A      0.159848    38A      0.161412  
      39A      0.167262    40A      0.170864    41A      0.202001  
      42A      0.209122    43A      0.210903    44A      0.229827  
      45A      0.247387    46A      0.249629    47A      0.252601  
      48A      0.269617    49A      0.276792    50A      0.282676  
      51A      0.284371    52A      0.315521    53A      0.318079  
      54A      0.330935    55A      0.337007    56A      0.342374  
      57A      0.351177    58A      0.357639    59A      0.358458  
      60A      0.362700    61A      0.373586    62A      0.374624  
      63A      0.383308    64A      0.386849    65A      0.389948  
      66A      0.392002    67A      0.396815    68A      0.402370  
      69A      0.407479    70A      0.413736    71A      0.422515  
      72A      0.429702    73A      0.443743    74A      0.448937  
      75A      0.455704    76A      0.462130    77A      0.464058  
      78A      0.465157    79A      0.474860    80A      0.481290  
      81A      0.487527    82A      0.493827    83A      0.501489  
      84A      0.504059    85A      0.509229    86A      0.513222  
      87A      0.520288    88A      0.533044    89A      0.533570  
      90A      0.537408    91A      0.545430    92A      0.560186  
      93A      0.567539    94A      0.572968    95A      0.586563  
      96A      0.591677    97A      0.602467    98A      0.611276  
      99A      0.621897   100A      0.631729   101A      0.638868  
     102A      0.660660   103A      0.681042   104A      0.686332  
     105A      0.700888   106A      0.712274   107A      0.762619  
     108A      0.779072   109A      0.797225   110A      0.814717  
     111A      0.822415   112A      0.827705   113A      0.836777  
     114A      0.844822   115A      0.849413   116A      0.860265  
     117A      0.864548   118A      0.867298   119A      0.886248  
     120A      0.892281   121A      0.897155   122A      0.902873  
     123A      0.906555   124A      0.922468   125A      0.926928  
     126A      0.931623   127A      0.937210   128A      0.943401  
     129A      0.944366   130A      0.960510   131A      0.967142  
     132A      0.971377   133A      0.978842   134A      0.986313  
     135A      0.993975   136A      1.015044   137A      1.019740  
     138A      1.035069   139A      1.048972   140A      1.065593  
     141A      1.071904   142A      1.081157   143A      1.093914  
     144A      1.110521   145A      1.114097   146A      1.123926  
     147A      1.130743   148A      1.133674   149A      1.141652  
     150A      1.159071   151A      1.164291   152A      1.166601  
     153A      1.176962   154A      1.193157   155A      1.202124  
     156A      1.219844   157A      1.224079   158A      1.232001  
     159A      1.246419   160A      1.256506   161A      1.260881  
     162A      1.265314   163A      1.273543   164A      1.279828  
     165A      1.296114   166A      1.304086   167A      1.321618  
     168A      1.327643   169A      1.342143   170A      1.352954  
     171A      1.360533   172A      1.388832   173A      1.401152  
     174A      1.423982   175A      1.432371   176A      1.441989  
     177A      1.462326   178A      1.482548   179A      1.499538  
     180A      1.508021   181A      1.522247   182A      1.526528  
     183A      1.551851   184A      1.559296   185A      1.563310  
     186A      1.586580   187A      1.593706   188A      1.616289  
     189A      1.632315   190A      1.645849   191A      1.649792  
     192A      1.652197   193A      1.677534   194A      1.692721  
     195A      1.695337   196A      1.702731   197A      1.711578  
     198A      1.721173   199A      1.733403   200A      1.743528  
     201A      1.745086   202A      1.759514   203A      1.766044  
     204A      1.777901   205A      1.782915   206A      1.795654  
     207A      1.797929   208A      1.809862   209A      1.822079  
     210A      1.846352   211A      1.864353   212A      1.872411  
     213A      1.890520   214A      1.904225   215A      1.916251  
     216A      1.927090   217A      1.961221   218A      1.975090  
     219A      1.986656   220A      1.993104   221A      2.001125  
     222A      2.009195   223A      2.033250   224A      2.043467  
     225A      2.049093   226A      2.066695   227A      2.092324  
     228A      2.102776   229A      2.124158   230A      2.145323  
     231A      2.162555   232A      2.193680   233A      2.196702  
     234A      2.207694   235A      2.243455   236A      2.256180  
     237A      2.264404   238A      2.281489   239A      2.301507  
     240A      2.310474   241A      2.333365   242A      2.336019  
     243A      2.348661   244A      2.359237   245A      2.372465  
     246A      2.375594   247A      2.424885   248A      2.444706  
     249A      2.466711   250A      2.479801   251A      2.506807  
     252A      2.554117   253A      2.603237   254A      2.622243  
     255A      2.640308   256A      2.663359   257A      2.716321  
     258A      2.889048   259A      2.924095   260A      3.009626  
     261A      3.235208   262A      3.249338   263A      3.303424  
     264A      3.372064   265A      3.389519   266A      3.421137  
     267A      3.450963   268A      3.454923   269A      3.471418  
     270A      3.485401   271A      3.524892   272A      3.542748  
     273A      3.571899   274A      3.572912   275A      3.597105  
     276A      3.609466   277A      3.629578   278A      3.664896  
     279A      3.685520   280A      3.694799   281A      3.714748  
     282A      3.719490   283A      3.736919   284A      3.743714  
     285A      3.757227   286A      3.769982   287A      3.779440  
     288A      3.799666   289A      3.810613   290A      3.823921  
     291A      3.846374   292A      3.858564   293A      3.877193  
     294A      3.889060   295A      3.915724   296A      3.928396  
     297A      3.940153   298A      3.950006   299A      3.976865  
     300A      3.997116   301A      4.008324   302A      4.016944  
     303A      4.022884   304A      4.025104   305A      4.049304  
     306A      4.058549   307A      4.071756   308A      4.084928  
     309A      4.124682   310A      4.183144   311A      4.198729  
     312A      4.212239   313A      4.231315   314A      4.240340  
     315A      4.251725   316A      4.277129   317A      4.280599  
     318A      4.290188   319A      4.309786   320A      4.333447  
     321A      4.339177   322A      4.373322   323A      4.382234  
     324A      4.411330   325A      4.427168   326A      4.443183  
     327A      4.526878   328A      4.551903   329A      4.577398  
     330A      4.590418   331A      4.632395   332A      4.666299  
     333A      4.687211   334A      4.698845   335A      4.718731  
     336A      4.736034   337A      4.745978   338A      4.751303  
     339A      4.773447   340A      4.795701   341A      4.808222  
     342A      4.861540   343A      4.869311   344A      4.884273  
     345A      4.890148   346A      4.916503   347A      4.942317  
     348A      4.955304   349A      4.974839   350A      5.006654  
     351A      5.043358   352A      5.069603   353A      5.084077  
     354A      5.094526   355A      5.131655   356A      5.171392  
     357A      5.181192   358A      5.200479   359A      5.207550  
     360A      5.238574   361A      5.254739   362A      5.270675  
     363A      5.276614   364A      5.310645   365A      5.319187  
     366A      5.340071   367A      5.391693   368A      5.414101  
     369A      5.438969   370A      5.449916   371A      5.458893  
     372A      5.468385   373A      5.498822   374A      5.519367  
     375A      5.584448   376A      5.602853   377A      5.625322  
     378A      5.643880   379A      5.680454   380A      5.683611  
     381A      5.698859   382A      5.758076   383A      5.777604  
     384A      5.791223   385A      5.820918   386A      5.861842  
     387A      5.907764   388A      5.919020   389A      5.958246  
     390A      6.025227   391A      6.120758   392A      6.157252  
     393A      6.174963   394A      6.191512   395A      6.245429  
     396A      6.265275   397A      6.271730   398A      6.315653  
     399A      6.318564   400A      6.357816   401A      6.407605  
     402A      6.437544   403A      6.556953   404A      6.570564  
     405A      6.747811   406A      6.784220   407A      6.830484  
     408A      6.849837   409A      6.857690   410A      6.984208  
     411A     18.069086   412A     18.381796   413A     18.672891  
     414A     18.955457  

    Final Occupation by Irrep:
              A 
    DOCC [    17 ]

  Energy converged.

  @DF-RHF Final Energy:  -157.35140467134678

   => Energetics <=

    Nuclear Repulsion Energy =            131.8299113095608277
    One-Electron Energy =                -471.7562746105095357
    Two-Electron Energy =                 182.5749586296019231
    DFT Exchange-Correlation Energy =       0.0000000000000000
    Empirical Dispersion Energy =           0.0000000000000000
    PCM Polarization Energy =               0.0000000000000000
    EFP Energy =                            0.0000000000000000
    Total Energy =                       -157.3514046713467849



Properties will be evaluated at   0.000000,   0.000000,   0.000000 Bohr

Properties computed using the SCF density matrix

  Nuclear Dipole Moment: (a.u.)
     X:     0.0012      Y:     0.0015      Z:    -0.0004

  Electronic Dipole Moment: (a.u.)
     X:    -0.0008      Y:    -0.0018      Z:    -0.0014

  Dipole Moment: (a.u.)
     X:     0.0004      Y:    -0.0002      Z:    -0.0018     Total:     0.0018

  Dipole Moment: (Debye)
     X:     0.0009      Y:    -0.0006      Z:    -0.0045     Total:     0.0046


*** tstop() called on gpu-1-16.local at Wed Jun 14 14:55:10 2017
Module time:
	user time   =      73.96 seconds =       1.23 minutes
	system time =       0.54 seconds =       0.01 minutes
	total time  =         75 seconds =       1.25 minutes
Total time:
	user time   =      73.97 seconds =       1.23 minutes
	system time =       0.54 seconds =       0.01 minutes
	total time  =         75 seconds =       1.25 minutes

  //>>>>>>>>>>>>>>>>>>>>>>>>>>>>>>>>>>>//
  //               DFMP2               //
  //<<<<<<<<<<<<<<<<<<<<<<<<<<<<<<<<<<<//

   => Loading Basis Set <=

    Name: (AUG-CC-PVTZ AUX)
    Role: RIFIT
    Keyword: DF_BASIS_MP2
    atoms 1-3, 5-6, 8-9, 11-13 entry H          line    29 file /cbio/jclab/home/chayas/anaconda/envs/py35/share/psi4/basis/aug-cc-pvtz-ri.gbs 
    atoms 4, 7, 10, 14         entry C          line   147 file /cbio/jclab/home/chayas/anaconda/envs/py35/share/psi4/basis/aug-cc-pvtz-ri.gbs 

	 --------------------------------------------------------
	                          DF-MP2                         
	      2nd-Order Density-Fitted Moller-Plesset Theory     
	              RMP2 Wavefunction,   1 Threads             
	                                                         
	        Rob Parrish, Justin Turney, Andy Simmonett,      
	           Ed Hohenstein, and C. David Sherrill          
	 --------------------------------------------------------

   => Auxiliary Basis Set <=

  Basis Set: (AUG-CC-PVTZ AUX)
    Blend: AUG-CC-PVTZ-RI
    Number of shells: 252
    Number of basis function: 884
    Number of Cartesian functions: 1094
    Spherical Harmonics?: true
    Max angular momentum: 4

	 --------------------------------------------------------
	                 NBF =   414, NAUX =   884
	 --------------------------------------------------------
	   CLASS    FOCC     OCC    AOCC    AVIR     VIR    FVIR
	   PAIRS       0      17      17     397     397       0
	 --------------------------------------------------------


         ------------------------------------------------------------
                                     CPHF                           
                                  Rob Parrish                       
         ------------------------------------------------------------

  ==> Geometry <==

    Molecular point group: c1
    Full point group: C1

    Geometry (in Angstrom), charge = 0, multiplicity = 1:

       Center              X                  Y                   Z               Mass       
    ------------   -----------------  -----------------  -----------------  -----------------
           H         -2.312776029323     0.057965294236     0.314758676441     1.007825032070
           H         -2.171776029323     1.685965294236    -0.305241323559     1.007825032070
           H         -1.873776029323     0.321965294236    -1.355241323559     1.007825032070
           C         -1.774776029323     0.692965294236    -0.357241323559    12.000000000000
           H          0.252223970677     1.348965294236    -0.635241323559     1.007825032070
           H         -0.185776029323     1.085965294236     1.035758676441     1.007825032070
           C         -0.285776029323     0.713965294236     0.037758676441    12.000000000000
           H         -0.251776029323    -1.349034705764     0.634758676441     1.007825032070
           H          0.187223970677    -1.086034705764    -1.035241323559     1.007825032070
           C          0.286223970677    -0.714034705764    -0.037241323559    12.000000000000
           H          2.359223970677    -0.365034705764    -0.476241323559     1.007825032070
           H          2.081223970677    -1.677034705764     0.643758676441     1.007825032070
           H          1.917223970677    -0.022034705764     1.177758676441     1.007825032070
           C          1.774223970677    -0.693034705764     0.356758676441    12.000000000000

  Nuclear repulsion =  131.829911309560828
  Reference energy  = -157.351404671346785

  ==> Basis Set <==

  Basis Set: AUG-CC-PVTZ
    Blend: AUG-CC-PVTZ
    Number of shells: 146
    Number of basis function: 414
    Number of Cartesian functions: 470
    Spherical Harmonics?: true
    Max angular momentum: 3

  ==> CGRSolver (by Rob Parrish) <==

   Number of roots    =         1
   Preconditioning    =    JACOBI
   Convergence cutoff =     1E-06
   Maximum iterations =       100

  ==> CPHFRHamiltonian (by Rob Parrish) <== 

  ==> DFJK: Density-Fitted J/K Matrices <==

    J tasked:                  Yes
    K tasked:                  Yes
    wK tasked:                  No
    OpenMP threads:              1
    Integrals threads:           1
    Memory (MB):               715
    Algorithm:                Core
    Integral Cache:           NONE
    Schwarz Cutoff:          1E-12
    Fitting Condition:       1E-12

   => Auxiliary Basis Set <=

  Basis Set: (AUG-CC-PVTZ AUX)
    Blend: AUG-CC-PVTZ-JKFIT
    Number of shells: 260
    Number of basis function: 876
    Number of Cartesian functions: 1074
    Spherical Harmonics?: true
    Max angular momentum: 4

  ==> CPHF Iterations <==

  => Iterations <=

             Iter  Converged  Remaining    Residual
  CGR           1          0          1   8.159E-02
  CGR           2          0          1   1.305E-02
  CGR           3          0          1   3.414E-03
  CGR           4          0          1   8.053E-04
  CGR           5          0          1   1.185E-04
  CGR           6          0          1   2.131E-05
  CGR           7          0          1   3.775E-06
  CGR           8          1          0   8.670E-07

    CGRSolver converged.

  ==> DFCorrGrad: Density-Fitted Correlated Gradients <==

    OpenMP threads:              1
    Integrals threads:           1
    Memory (MB):               715
    Schwarz Cutoff:          0E+00
    Fitting Condition:       1E-12

   => Auxiliary Basis Set <=

  Basis Set: (AUG-CC-PVTZ AUX)
    Blend: AUG-CC-PVTZ-JKFIT
    Number of shells: 260
    Number of basis function: 876
    Number of Cartesian functions: 1074
    Spherical Harmonics?: true
    Max angular momentum: 4

	-----------------------------------------------------------
	 ==================> DF-MP2 Energies <==================== 
	-----------------------------------------------------------
	 Reference Energy          =    -157.3514046713467849 [Eh]
	 Singles Energy            =      -0.0000000000000000 [Eh]
	 Same-Spin Energy          =      -0.1654012187831645 [Eh]
	 Opposite-Spin Energy      =      -0.6388832656868221 [Eh]
	 Correlation Energy        =      -0.8042844844699866 [Eh]
	 Total Energy              =    -158.1556891558167592 [Eh]
	-----------------------------------------------------------
	 ================> DF-SCS-MP2 Energies <================== 
	-----------------------------------------------------------
	 SCS Same-Spin Scale       =       0.3333333333333333 [-]
	 SCS Opposite-Spin Scale   =       1.2000000000000000 [-]
	 SCS Same-Spin Energy      =      -0.0551337395943882 [Eh]
	 SCS Opposite-Spin Energy  =      -0.7666599188241865 [Eh]
	 SCS Correlation Energy    =      -0.8217936584185747 [Eh]
	 SCS Total Energy          =    -158.1731983297653699 [Eh]
	-----------------------------------------------------------


  -Total Gradient:
     Atom            X                  Y                   Z
    ------   -----------------  -----------------  -----------------
       1        0.007819460322     0.006795598460    -0.006376021987
       2        0.008174729791    -0.009376440392     0.000621541409
       3        0.003355150280     0.004148340274     0.011227186857
       4       -0.025252325085    -0.007147862406    -0.007737484401
       5       -0.007933979331    -0.008479585773     0.006043204224
       6       -0.003165798998    -0.005222816909    -0.011411976074
       7        0.022246631762     0.030934303778     0.012407024079
       8        0.008398780796     0.007658215918    -0.006524249877
       9        0.003824678169     0.006206587604     0.011033018254
      10       -0.020038527085    -0.030922611886    -0.011154450955
      11       -0.008863062701    -0.004315191467     0.007340883897
      12       -0.008032842299     0.009663806109    -0.002878251354
      13       -0.003756809295    -0.006223452512    -0.009571630788
      14        0.023223913677     0.006281109204     0.006981206719


*** tstop() called on gpu-1-16.local at Wed Jun 14 15:00:21 2017
Module time:
	user time   =     381.51 seconds =       6.36 minutes
	system time =       3.37 seconds =       0.06 minutes
	total time  =        386 seconds =       6.43 minutes
Total time:
	user time   =     381.52 seconds =       6.36 minutes
	system time =       3.37 seconds =       0.06 minutes
	total time  =        386 seconds =       6.43 minutes

			-----------------------------------------
			 OPTKING 2.0: for geometry optimizations 
			  - R.A. King,  Bethel University        
			-----------------------------------------

	Internal coordinates to be generated automatically.
	Detected frag 1 with atoms:  1 2 3 4 5 6 7 8 9 10 11 12 13 14
	---Fragment 1 Bond Connectivity---
	 1 : 4
	 2 : 4
	 3 : 4
	 4 : 1 2 3 7
	 5 : 7
	 6 : 7
	 7 : 4 5 6 10
	 8 : 10
	 9 : 10
	 10 : 7 8 9 14
	 11 : 14
	 12 : 14
	 13 : 14
	 14 : 10 11 12 13

	Assuming in current code that numbering for constraints corresponds to unified fragment.
	Fixed dihedral atom list: 
	     7    10    14    13
	---Fragment 1 Geometry and Gradient---
	 H          -4.3705133021        0.1095385313        0.5948076964
	 H          -4.1040619174        3.1860126757       -0.5768225060
	 H          -3.5409235298        0.6084262304       -2.5610349455
	 C          -3.3538406426        1.3095146257       -0.6750882649
	 H           0.4766342287        2.5491749689       -1.2004321298
	 H          -0.3510658175        2.0521769959        1.9573002382
	 C          -0.5400384308        1.3491988745        0.0713535576
	 H          -0.4757877422       -2.5493061377        1.1995200589
	 H           0.3538020301       -2.0523081647       -1.9563225830
	 C           0.5408849172       -1.3493300433       -0.0703759024
	 H           4.4582871907       -0.6898156229       -0.8999656747
	 H           3.9329433258       -3.1691363092        1.2165275941
	 H           3.6230282400       -0.0416395593        2.2256413491
	 C           3.3527974030       -1.3096457945        0.6741761940
	             0.0078194603        0.0067955985       -0.0063760220
	             0.0081747298       -0.0093764404        0.0006215414
	             0.0033551503        0.0041483403        0.0112271869
	            -0.0252523251       -0.0071478624       -0.0077374844
	            -0.0079339793       -0.0084795858        0.0060432042
	            -0.0031657990       -0.0052228169       -0.0114119761
	             0.0222466318        0.0309343038        0.0124070241
	             0.0083987808        0.0076582159       -0.0065242499
	             0.0038246782        0.0062065876        0.0110330183
	            -0.0200385271       -0.0309226119       -0.0111544510
	            -0.0088630627       -0.0043151915        0.0073408839
	            -0.0080328423        0.0096638061       -0.0028782514
	            -0.0037568093       -0.0062234525       -0.0095716308
	             0.0232239137        0.0062811092        0.0069812067

	Previous optimization step data not found.  Starting new optimization.

	---Fragment 1 Intrafragment Coordinates---
	 - Coordinate -           - BOHR/RAD -       - ANG/DEG -
	 R(1,4)           =         2.021436	       1.069698
	 R(2,4)           =         2.023298	       1.070683
	 R(3,4)           =         2.020723	       1.069320
	 R(4,7)           =         2.911397	       1.540645
	 R(5,7)           =         2.022623	       1.070326
	 R(6,7)           =         2.021555	       1.069761
	 R(7,10)          =         2.910419	       1.540128
	 R(8,10)          =         2.021436	       1.069698
	 R(9,10)          =         2.021379	       1.069668
	 R(10,14)         =         2.909087	       1.539422
	 R(11,14)         =         2.020945	       1.069438
	 R(12,14)         =         2.021984	       1.069988
	 R(13,14)         =         2.021858	       1.069921
	 B(1,4,2)         =         1.910870	     109.484805
	 B(1,4,3)         =         1.911121	     109.499161
	 B(1,4,7)         =         1.910399	     109.457783
	 B(2,4,3)         =         1.910042	     109.437340
	 B(2,4,7)         =         1.910564	     109.467262
	 B(3,4,7)         =         1.910803	     109.480971
	 B(4,7,5)         =         1.909937	     109.431343
	 B(4,7,6)         =         1.911630	     109.528316
	 B(4,7,10)        =         1.911154	     109.501062
	 B(5,7,6)         =         1.910605	     109.469614
	 B(5,7,10)        =         1.910047	     109.437654
	 B(6,7,10)        =         1.910425	     109.459295
	 B(7,10,8)        =         1.910303	     109.452301
	 B(7,10,9)        =         1.910824	     109.482155
	 B(7,10,14)       =         1.911213	     109.504437
	 B(8,10,9)        =         1.910417	     109.458846
	 B(8,10,14)       =         1.910766	     109.478806
	 B(9,10,14)       =         1.910276	     109.450772
	 B(10,14,11)      =         1.910887	     109.485753
	 B(10,14,12)      =         1.910746	     109.477700
	 B(10,14,13)      =         1.911489	     109.520261
	 B(11,14,12)      =         1.911374	     109.513680
	 B(11,14,13)      =         1.909470	     109.404590
	 B(12,14,13)      =         1.909832	     109.425318
	 D(1,4,7,5)       =         3.140997	     179.965873
	 D(1,4,7,6)       =        -1.047644	     -60.025575
	 D(1,4,7,10)      =         1.047427	      60.013132
	 D(2,4,7,5)       =        -1.047689	     -60.028143
	 D(2,4,7,6)       =         1.046856	      59.980409
	 D(2,4,7,10)      =        -3.141259	    -179.980883
	 D(3,4,7,5)       =         1.046044	      59.933911
	 D(3,4,7,6)       =         3.140588	     179.942463
	 D(3,4,7,10)      =        -1.047526	     -60.018830
	 D(4,7,10,8)      =        -1.047368	     -60.009777
	 D(4,7,10,9)      =         1.046677	      59.970178
	 D(4,7,10,14)     =         3.141107	     179.972182
	 D(5,7,10,8)      =        -3.140871	    -179.958653
	 D(5,7,10,9)      =        -1.046826	     -59.978698
	 D(5,7,10,14)     =         1.047604	      60.023306
	 D(6,7,10,8)      =         1.048439	      60.071149
	 D(6,7,10,9)      =        -3.140701	    -179.948896
	 D(6,7,10,14)     =        -1.046271	     -59.946893
	 D(7,10,14,11)    =        -1.395867	     -79.977282
	 D(7,10,14,12)    =         2.791791	     159.957823
	 D(7,10,14,13)    =         0.697783	      39.980041
	 D(8,10,14,11)    =         2.792892	     160.020896
	 D(8,10,14,12)    =         0.697364	      39.956001
	 D(8,10,14,13)    =        -1.396644	     -80.021781
	 D(9,10,14,11)    =         0.698898	      40.043925
	 D(9,10,14,12)    =        -1.396629	     -80.020970
	 D(9,10,14,13)    =         2.792549	     160.001249

	Current energy   :      -158.1556891558

	Generating empirical Hessian (Schlegel '84) for each fragment.
	Adding user-defined constraint: Fragment 1; Coordinate 58:
		Value =     0.697783; Fixed value    =     0.698132
		Force =     0.000174; Force constant =     0.500000
	Removing off-diagonal coupling between coordinate 58 and others.
	Taking RFO optimization step.
	Going to follow RFO solution 1.
	Using RFO vector 1.

	Determining step-restricting scale parameter for RS-RFO.
	Maximum step size allowed    0.10000

	 Iter      |step|        alpha        rfo_root  
	------------------------------------------------
	    0     0.20461       1.00000           1
	    1     0.15923       5.09766           1
	    2     0.12596      15.14630           1
	    3     0.10736      27.98792           1
	    4     0.10083      34.89232           1
	    5     0.10001      35.88331           1
	    6     0.10000      35.89876           1
	------------------------------------------------
	Norm of target step-size    0.10000
	Projected energy change by RFO approximation:        -0.0041634518

	Back-transformation to cartesian coordinates...
	Could not converge backtransformation.
	Using first guess instead.

	--- Internal Coordinate Step in ANG or DEG, aJ/ANG or AJ/DEG ---
	 ---------------------------------------------------------------------------
	   Coordinate                Previous        Force       Change         New 
	   ----------                --------       ------       ------       ------
	    1 R(1,4)          =      1.069698     0.098637     0.012036     1.081733
	    2 R(2,4)          =      1.070683     0.096369     0.011775     1.082458
	    3 R(3,4)          =      1.069320     0.100745     0.012277     1.081598
	    4 R(4,7)          =      1.540645    -0.052413    -0.007578     1.533067
	    5 R(5,7)          =      1.070326     0.105609     0.012854     1.083180
	    6 R(6,7)          =      1.069761     0.105114     0.012776     1.082536
	    7 R(7,10)         =      1.540128    -0.074875    -0.010729     1.529398
	    8 R(8,10)         =      1.069698     0.106023     0.012887     1.082585
	    9 R(9,10)         =      1.069668     0.105507     0.012825     1.082493
	   10 R(10,14)        =      1.539422    -0.025031    -0.003563     1.535859
	   11 R(11,14)        =      1.069438     0.097955     0.011936     1.081375
	   12 R(12,14)        =      1.069988     0.098568     0.012042     1.082030
	   13 R(13,14)        =      1.069921     0.096804     0.011866     1.081787
	   14 B(1,4,2)        =    109.484805    -0.000247    -0.567640   108.917165
	   15 B(1,4,3)        =    109.499161    -0.000172    -0.452564   109.046598
	   16 B(1,4,7)        =    109.457783     0.000121     0.269909   109.727692
	   17 B(2,4,3)        =    109.437340    -0.000247    -0.564278   108.873063
	   18 B(2,4,7)        =    109.467262     0.000412     0.999593   110.466855
	   19 B(3,4,7)        =    109.480971     0.000133     0.299824   109.780796
	   20 B(4,7,5)        =    109.431343    -0.000127    -0.162070   109.269273
	   21 B(4,7,6)        =    109.528316    -0.000115    -0.137782   109.390535
	   22 B(4,7,10)       =    109.501062     0.000648     1.384785   110.885847
	   23 B(5,7,6)        =    109.469614     0.000013    -0.219267   109.250346
	   24 B(5,7,10)       =    109.437654    -0.000193    -0.389205   109.048449
	   25 B(6,7,10)       =    109.459295    -0.000225    -0.486350   108.972945
	   26 B(7,10,8)       =    109.452301    -0.000216    -0.472440   108.979860
	   27 B(7,10,9)       =    109.482155    -0.000242    -0.512567   108.969588
	   28 B(7,10,14)      =    109.504437     0.000672     1.439365   110.943802
	   29 B(8,10,9)       =    109.458846     0.000007    -0.253142   109.205704
	   30 B(8,10,14)      =    109.478806    -0.000101    -0.072116   109.406691
	   31 B(9,10,14)      =    109.450772    -0.000120    -0.140991   109.309781
	   32 B(10,14,11)     =    109.485753     0.000199     0.441892   109.927645
	   33 B(10,14,12)     =    109.477700     0.000436     1.069353   110.547053
	   34 B(10,14,13)     =    109.520261     0.000131     0.294317   109.814578
	   35 B(11,14,12)     =    109.513680    -0.000298    -0.688959   108.824721
	   36 B(11,14,13)     =    109.404590    -0.000210    -0.571096   108.833494
	   37 B(12,14,13)     =    109.425318    -0.000259    -0.568030   108.857288
	   38 D(1,4,7,5)      =    179.965873     0.000010     0.140942   180.106815
	   39 D(1,4,7,6)      =    -60.025575    -0.000020    -0.309151   -60.334726
	   40 D(1,4,7,10)     =     60.013132    -0.000008    -0.134778    59.878354
	   41 D(2,4,7,5)      =    -60.028143     0.000016     0.231552   -59.796591
	   42 D(2,4,7,6)      =     59.980409    -0.000015    -0.218542    59.761868
	   43 D(2,4,7,10)     =   -179.980883    -0.000003    -0.044169  -180.025052
	   44 D(3,4,7,5)      =     59.933911     0.000023     0.345357    60.279267
	   45 D(3,4,7,6)      =    179.942463    -0.000008    -0.104737   179.837726
	   46 D(3,4,7,10)     =    -60.018830     0.000004     0.069636   -59.949194
	   47 D(4,7,10,8)     =    -60.009777     0.000031     0.430365   -59.579411
	   48 D(4,7,10,9)     =     59.970178    -0.000032    -0.466791    59.503387
	   49 D(4,7,10,14)    =    179.972182    -0.000005    -0.073561   179.898620
	   50 D(5,7,10,8)     =   -179.958653     0.000003     0.019457  -179.939196
	   51 D(5,7,10,9)     =    -59.978698    -0.000060    -0.877700   -60.856398
	   52 D(5,7,10,14)    =     60.023306    -0.000033    -0.484470    59.538835
	   53 D(6,7,10,8)     =     60.071149     0.000058     0.810752    60.881901
	   54 D(6,7,10,9)     =   -179.948896    -0.000005    -0.086404  -180.035300
	   55 D(6,7,10,14)    =    -59.946893     0.000022     0.306826   -59.640067
	   56 D(7,10,14,11)   =    -79.977282     0.000020     0.333500   -79.643782
	   57 D(7,10,14,12)   =    159.957823     0.000014     0.237435   160.195258
	   58 D(7,10,14,13)   =     39.980041     0.000007     0.086523    40.066564
	   59 D(8,10,14,11)   =    160.020896     0.000000     0.066653   160.087549
	   60 D(8,10,14,12)   =     39.956001    -0.000005    -0.029411    39.926589
	   61 D(8,10,14,13)   =    -80.021781    -0.000012    -0.180324   -80.202105
	   62 D(9,10,14,11)   =     40.043925     0.000030     0.505432    40.549357
	   63 D(9,10,14,12)   =    -80.020970     0.000024     0.409367   -79.611603
	   64 D(9,10,14,13)   =    160.001249     0.000017     0.258454   160.259703
	 ---------------------------------------------------------------------------
	Successfully symmetrized geometry.
	 Forces used to impose fixed constraints are not included.
	  Forces zeroed: 58 

  ==> Convergence Check <==

  Measures of convergence in internal coordinates in au.
  Criteria marked as inactive (o), active & met (*), and active & unmet ( ).
  --------------------------------------------------------------------------------------------- ~
   Step     Total Energy     Delta E     MAX Force     RMS Force      MAX Disp      RMS Disp    ~
  --------------------------------------------------------------------------------------------- ~
    Convergence Criteria    1.00e-06 *    3.00e-04 *             o    1.20e-03 *             o  ~
  --------------------------------------------------------------------------------------------- ~
      1    -158.15568916   -1.58e+02      1.29e-02      5.62e-03 o    2.51e-02      1.25e-02 o  ~
  ---------------------------------------------------------------------------------------------

	Writing optimization data to binary file.
	Structure for next step:
	Cartesian Geometry (in Angstrom)
	    H    -2.3305526309   0.0592308699   0.3172576278
	    H    -2.1868660208   1.6991342287  -0.3081748973
	    H    -1.8875617391   0.3249861151  -1.3670114379
	    C    -1.7774620807   0.6983181500  -0.3578757974
	    H     0.2508763983   1.3485773428  -0.6452688337
	    H    -0.1921665835   1.0825940162   1.0433171018
	    C    -0.2953124693   0.7053765655   0.0338851401
	    H    -0.2544133553  -1.3469127880   0.6458273534
	    H     0.1891886902  -1.0822025262  -1.0417559638
	    C     0.2929215704  -0.7048126463  -0.0324956248
	    H     2.3777871148  -0.3672872224  -0.4794693050
	    H     2.0995193708  -1.6912995355   0.6451761133
	    H     1.9367031270  -0.0252913429   1.1888819748
	    C     1.7784741975  -0.6988971074   0.3573280191
			--------------------------
			 OPTKING Finished Execution 
			--------------------------

    Structure for next step:
    Molecular point group: c1
    Full point group: C1

    Geometry (in Angstrom), charge = 0, multiplicity = 1:

    H           -2.330311381607     0.059207441760     0.317104885088
    H           -2.186624771443     1.699110800541    -0.308327639941
    H           -1.887320489812     0.324962686961    -1.367164180617
    C           -1.777220831399     0.698294721860    -0.358028540098
    H            0.251117647596     1.348553914657    -0.645421576356
    H           -0.191925334158     1.082570588045     1.043164359131
    C           -0.295071219974     0.705353137348     0.033732397413
    H           -0.254172106036    -1.346936216126     0.645674610747
    H            0.189429939538    -1.082225954363    -1.041908706519
    C            0.293162819733    -0.704836074450    -0.032648367505
    H            2.378028364156    -0.367310650526    -0.479622047702
    H            2.099760620100    -1.691322963630     0.645023370579
    H            1.936944376269    -0.025314770991     1.188729232124
    C            1.778715446850    -0.698920535489     0.357175276378

gradient() will perform analytic gradient computation.

*** tstart() called on gpu-1-16.local
*** at Wed Jun 14 15:00:21 2017

    SCF Algorithm Type (re)set to DF.

*** tstart() called on gpu-1-16.local
*** at Wed Jun 14 15:00:21 2017

   => Loading Basis Set <=

    Name: AUG-CC-PVTZ
    Role: ORBITAL
    Keyword: BASIS
    atoms 1-3, 5-6, 8-9, 11-13 entry H          line    34 file /cbio/jclab/home/chayas/anaconda/envs/py35/share/psi4/basis/aug-cc-pvtz.gbs 
    atoms 4, 7, 10, 14         entry C          line   221 file /cbio/jclab/home/chayas/anaconda/envs/py35/share/psi4/basis/aug-cc-pvtz.gbs 


         ---------------------------------------------------------
                                   SCF
            by Justin Turney, Rob Parrish, and Andy Simmonett
                              RHF Reference
                        1 Threads,    953 MiB Core
         ---------------------------------------------------------

  ==> Geometry <==

    Molecular point group: c1
    Full point group: C1

    Geometry (in Angstrom), charge = 0, multiplicity = 1:

       Center              X                  Y                   Z               Mass       
    ------------   -----------------  -----------------  -----------------  -----------------
           H         -2.330311381607     0.059207441760     0.317104885088     1.007825032070
           H         -2.186624771443     1.699110800541    -0.308327639941     1.007825032070
           H         -1.887320489812     0.324962686961    -1.367164180617     1.007825032070
           C         -1.777220831399     0.698294721860    -0.358028540098    12.000000000000
           H          0.251117647596     1.348553914657    -0.645421576356     1.007825032070
           H         -0.191925334158     1.082570588045     1.043164359131     1.007825032070
           C         -0.295071219974     0.705353137348     0.033732397413    12.000000000000
           H         -0.254172106036    -1.346936216126     0.645674610747     1.007825032070
           H          0.189429939538    -1.082225954363    -1.041908706519     1.007825032070
           C          0.293162819733    -0.704836074450    -0.032648367505    12.000000000000
           H          2.378028364156    -0.367310650526    -0.479622047702     1.007825032070
           H          2.099760620100    -1.691322963630     0.645023370579     1.007825032070
           H          1.936944376269    -0.025314770991     1.188729232124     1.007825032070
           C          1.778715446850    -0.698920535489     0.357175276378    12.000000000000

  Running in c1 symmetry.

  Rotational constants: A =      0.77666  B =      0.12350  C =      0.11572 [cm^-1]
  Rotational constants: A =  23283.67033  B =   3702.41477  C =   3469.17991 [MHz]
  Nuclear repulsion =  131.418494541229819

  Charge       = 0
  Multiplicity = 1
  Electrons    = 34
  Nalpha       = 17
  Nbeta        = 17

  ==> Algorithm <==

  SCF Algorithm Type is DF.
  DIIS enabled.
  MOM disabled.
  Fractional occupation disabled.
  Guess Type is READ.
  Energy threshold   = 1.00e-10
  Density threshold  = 1.00e-10
  Integral threshold = 0.00e+00

  ==> Primary Basis <==

  Basis Set: AUG-CC-PVTZ
    Blend: AUG-CC-PVTZ
    Number of shells: 146
    Number of basis function: 414
    Number of Cartesian functions: 470
    Spherical Harmonics?: true
    Max angular momentum: 3

   => Loading Basis Set <=

    Name: (AUG-CC-PVTZ AUX)
    Role: JKFIT
    Keyword: DF_BASIS_SCF
    atoms 1-3, 5-6, 8-9, 11-13 entry H          line    69 file /cbio/jclab/home/chayas/anaconda/envs/py35/share/psi4/basis/aug-cc-pvtz-jkfit.gbs 
    atoms 4, 7, 10, 14         entry C          line   161 file /cbio/jclab/home/chayas/anaconda/envs/py35/share/psi4/basis/aug-cc-pvtz-jkfit.gbs 

  Reading orbitals from file 180, no projection.

  ==> Pre-Iterations <==

   -------------------------------------------------------
    Irrep   Nso     Nmo     Nalpha   Nbeta   Ndocc  Nsocc
   -------------------------------------------------------
     A        414     414       0       0       0       0
   -------------------------------------------------------
    Total     414     414      17      17      17       0
   -------------------------------------------------------

  ==> Integral Setup <==

  ==> DFJK: Density-Fitted J/K Matrices <==

    J tasked:                  Yes
    K tasked:                  Yes
    wK tasked:                  No
    OpenMP threads:              1
    Integrals threads:           1
    Memory (MB):               715
    Algorithm:                Core
    Integral Cache:           NONE
    Schwarz Cutoff:          1E-12
    Fitting Condition:       1E-12

   => Auxiliary Basis Set <=

  Basis Set: (AUG-CC-PVTZ AUX)
    Blend: AUG-CC-PVTZ-JKFIT
    Number of shells: 260
    Number of basis function: 876
    Number of Cartesian functions: 1074
    Spherical Harmonics?: true
    Max angular momentum: 4

  Minimum eigenvalue in the overlap matrix is 8.6999606565E-06.
  Using Symmetric Orthogonalization.

  SCF Guess: Orbitals guess was supplied from a previous computation.

  ==> Iterations <==

                           Total Energy        Delta E     RMS |[F,P]|

   @DF-RHF iter   0:  -157.27719712871385   -1.57277e+02   1.23627e-04 
   @DF-RHF iter   1:  -157.35377313532518   -7.65760e-02   5.14141e-05 
   @DF-RHF iter   2:  -157.35404277908594   -2.69644e-04   2.66061e-05 DIIS
   @DF-RHF iter   3:  -157.35410012455787   -5.73455e-05   2.85157e-06 DIIS
   @DF-RHF iter   4:  -157.35410155998775   -1.43543e-06   7.67073e-07 DIIS
   @DF-RHF iter   5:  -157.35410164741759   -8.74298e-08   2.55640e-07 DIIS
   @DF-RHF iter   6:  -157.35410165739611   -9.97852e-09   4.21629e-08 DIIS
   @DF-RHF iter   7:  -157.35410165779746   -4.01343e-10   6.12954e-09 DIIS
   @DF-RHF iter   8:  -157.35410165780610   -8.64020e-12   1.07865e-09 DIIS
   @DF-RHF iter   9:  -157.35410165780578    3.12639e-13   2.56420e-10 DIIS
   @DF-RHF iter  10:  -157.35410165780567    1.13687e-13   6.06356e-11 DIIS

  ==> Post-Iterations <==

    Orbital Energies (a.u.)
    -----------------------

    Doubly Occupied:                                                      

       1A    -11.210335     2A    -11.209655     3A    -11.203725  
       4A    -11.203496     5A     -1.071078     6A     -0.979686  
       7A     -0.860118     8A     -0.789366     9A     -0.645048  
      10A     -0.584805    11A     -0.572226    12A     -0.572200  
      13A     -0.512407    14A     -0.500123    15A     -0.469758  
      16A     -0.465234    17A     -0.449027  

    Virtual:                                                              

      18A      0.032288    19A      0.037082    20A      0.039589  
      21A      0.040806    22A      0.056994    23A      0.058500  
      24A      0.059729    25A      0.061241    26A      0.081774  
      27A      0.083269    28A      0.098515    29A      0.112388  
      30A      0.123050    31A      0.130786    32A      0.136005  
      33A      0.141699    34A      0.143291    35A      0.146309  
      36A      0.148281    37A      0.159789    38A      0.161292  
      39A      0.167595    40A      0.170935    41A      0.202042  
      42A      0.209222    43A      0.211632    44A      0.229033  
      45A      0.246113    46A      0.248750    47A      0.251101  
      48A      0.268344    49A      0.274721    50A      0.281757  
      51A      0.283500    52A      0.315629    53A      0.318154  
      54A      0.330470    55A      0.336008    56A      0.341901  
      57A      0.349980    58A      0.357250    59A      0.357308  
      60A      0.361260    61A      0.373206    62A      0.373895  
      63A      0.383044    64A      0.386441    65A      0.389614  
      66A      0.391480    67A      0.396306    68A      0.401759  
      69A      0.405296    70A      0.412812    71A      0.421980  
      72A      0.428603    73A      0.441563    74A      0.446690  
      75A      0.452999    76A      0.459602    77A      0.462278  
      78A      0.463853    79A      0.472723    80A      0.479315  
      81A      0.485949    82A      0.492510    83A      0.499260  
      84A      0.503138    85A      0.507037    86A      0.512042  
      87A      0.519971    88A      0.532564    89A      0.533917  
      90A      0.537010    91A      0.546114    92A      0.560899  
      93A      0.566984    94A      0.572017    95A      0.586588  
      96A      0.591412    97A      0.602180    98A      0.610058  
      99A      0.621972   100A      0.630042   101A      0.638902  
     102A      0.660052   103A      0.678304   104A      0.683309  
     105A      0.701260   106A      0.709359   107A      0.762610  
     108A      0.778978   109A      0.796594   110A      0.813328  
     111A      0.822053   112A      0.827539   113A      0.834853  
     114A      0.843310   115A      0.848318   116A      0.858958  
     117A      0.864022   118A      0.866748   119A      0.884071  
     120A      0.890869   121A      0.895034   122A      0.900932  
     123A      0.904715   124A      0.919567   125A      0.924099  
     126A      0.929847   127A      0.935680   128A      0.941569  
     129A      0.942173   130A      0.957584   131A      0.964508  
     132A      0.970523   133A      0.977041   134A      0.985315  
     135A      0.993683   136A      1.013828   137A      1.018302  
     138A      1.033903   139A      1.047811   140A      1.064301  
     141A      1.071445   142A      1.078771   143A      1.091696  
     144A      1.108168   145A      1.110803   146A      1.121761  
     147A      1.128456   148A      1.130948   149A      1.140767  
     150A      1.155560   151A      1.160621   152A      1.162792  
     153A      1.173548   154A      1.190258   155A      1.196964  
     156A      1.217551   157A      1.220866   158A      1.229782  
     159A      1.243833   160A      1.252834   161A      1.257896  
     162A      1.261489   163A      1.270600   164A      1.277250  
     165A      1.291703   166A      1.299371   167A      1.315988  
     168A      1.323117   169A      1.338933   170A      1.349590  
     171A      1.357330   172A      1.384813   173A      1.397695  
     174A      1.419662   175A      1.427902   176A      1.437986  
     177A      1.457861   178A      1.480140   179A      1.497172  
     180A      1.503628   181A      1.517930   182A      1.524550  
     183A      1.551080   184A      1.558116   185A      1.561565  
     186A      1.587253   187A      1.591478   188A      1.614159  
     189A      1.627479   190A      1.639505   191A      1.645411  
     192A      1.649237   193A      1.673749   194A      1.690569  
     195A      1.692196   196A      1.699723   197A      1.709213  
     198A      1.717194   199A      1.731234   200A      1.740211  
     201A      1.745936   202A      1.758709   203A      1.765362  
     204A      1.773673   205A      1.782580   206A      1.792478  
     207A      1.794455   208A      1.805070   209A      1.818449  
     210A      1.843161   211A      1.862376   212A      1.866733  
     213A      1.885171   214A      1.900331   215A      1.912158  
     216A      1.922334   217A      1.953531   218A      1.970204  
     219A      1.978171   220A      1.987700   221A      1.992570  
     222A      2.003471   223A      2.028903   224A      2.035488  
     225A      2.041307   226A      2.061835   227A      2.088154  
     228A      2.098358   229A      2.118527   230A      2.141128  
     231A      2.156089   232A      2.183696   233A      2.192019  
     234A      2.208749   235A      2.237863   236A      2.249086  
     237A      2.258531   238A      2.273939   239A      2.294956  
     240A      2.300007   241A      2.325918   242A      2.328264  
     243A      2.339826   244A      2.346234   245A      2.363228  
     246A      2.371101   247A      2.420816   248A      2.441025  
     249A      2.467811   250A      2.478957   251A      2.508163  
     252A      2.543674   253A      2.603624   254A      2.618811  
     255A      2.640695   256A      2.661844   257A      2.728922  
     258A      2.897811   259A      2.933739   260A      3.026849  
     261A      3.240357   262A      3.245666   263A      3.293490  
     264A      3.379439   265A      3.396145   266A      3.425820  
     267A      3.451940   268A      3.459055   269A      3.466086  
     270A      3.484598   271A      3.521288   272A      3.542358  
     273A      3.571063   274A      3.578770   275A      3.599871  
     276A      3.607328   277A      3.635599   278A      3.658328  
     279A      3.679909   280A      3.686272   281A      3.712992  
     282A      3.722416   283A      3.731057   284A      3.743345  
     285A      3.753084   286A      3.767770   287A      3.779509  
     288A      3.797643   289A      3.809517   290A      3.820617  
     291A      3.848061   292A      3.857811   293A      3.876061  
     294A      3.882839   295A      3.911829   296A      3.921609  
     297A      3.940403   298A      3.948218   299A      3.970831  
     300A      3.987786   301A      3.997512   302A      4.006008  
     303A      4.013777   304A      4.014036   305A      4.044425  
     306A      4.050657   307A      4.062165   308A      4.077216  
     309A      4.123310   310A      4.178465   311A      4.191844  
     312A      4.206180   313A      4.221186   314A      4.226148  
     315A      4.237404   316A      4.264459   317A      4.265632  
     318A      4.280274   319A      4.298819   320A      4.320566  
     321A      4.330854   322A      4.365327   323A      4.369745  
     324A      4.399433   325A      4.416750   326A      4.422185  
     327A      4.514542   328A      4.531834   329A      4.566048  
     330A      4.575262   331A      4.618376   332A      4.649674  
     333A      4.665371   334A      4.681902   335A      4.705236  
     336A      4.719036   337A      4.724609   338A      4.736149  
     339A      4.763612   340A      4.776751   341A      4.787514  
     342A      4.837287   343A      4.853310   344A      4.867907  
     345A      4.873911   346A      4.899734   347A      4.927963  
     348A      4.939603   349A      4.952645   350A      4.998269  
     351A      5.027467   352A      5.046226   353A      5.063370  
     354A      5.079165   355A      5.107645   356A      5.153819  
     357A      5.162298   358A      5.179978   359A      5.189308  
     360A      5.227243   361A      5.229820   362A      5.248430  
     363A      5.252168   364A      5.288761   365A      5.297204  
     366A      5.326298   367A      5.372199   368A      5.386821  
     369A      5.415464   370A      5.431390   371A      5.435523  
     372A      5.453938   373A      5.470734   374A      5.489374  
     375A      5.554585   376A      5.569319   377A      5.600890  
     378A      5.614504   379A      5.652224   380A      5.656113  
     381A      5.695043   382A      5.733651   383A      5.738029  
     384A      5.751586   385A      5.812295   386A      5.815809  
     387A      5.871604   388A      5.882110   389A      5.923079  
     390A      5.996485   391A      6.065001   392A      6.127418  
     393A      6.136536   394A      6.160738   395A      6.205261  
     396A      6.225186   397A      6.232198   398A      6.270938  
     399A      6.279360   400A      6.324816   401A      6.368014  
     402A      6.404500   403A      6.550191   404A      6.561565  
     405A      6.736160   406A      6.779277   407A      6.826901  
     408A      6.843666   409A      6.854087   410A      6.987178  
     411A     17.974980   412A     18.189278   413A     18.503850  
     414A     18.845949  

    Final Occupation by Irrep:
              A 
    DOCC [    17 ]

  Energy converged.

  @DF-RHF Final Energy:  -157.35410165780567

   => Energetics <=

    Nuclear Repulsion Energy =            131.4184945412298191
    One-Electron Energy =                -470.9486190222971800
    Two-Electron Energy =                 182.1760228232616612
    DFT Exchange-Correlation Energy =       0.0000000000000000
    Empirical Dispersion Energy =           0.0000000000000000
    PCM Polarization Energy =               0.0000000000000000
    EFP Energy =                            0.0000000000000000
    Total Energy =                       -157.3541016578056713



Properties will be evaluated at   0.000000,   0.000000,   0.000000 Bohr

Properties computed using the SCF density matrix

  Nuclear Dipole Moment: (a.u.)
     X:     0.0046      Y:     0.0012      Z:    -0.0026

  Electronic Dipole Moment: (a.u.)
     X:    -0.0045      Y:    -0.0008      Z:     0.0010

  Dipole Moment: (a.u.)
     X:     0.0001      Y:     0.0005      Z:    -0.0016     Total:     0.0016

  Dipole Moment: (Debye)
     X:     0.0003      Y:     0.0012      Z:    -0.0040     Total:     0.0042


*** tstop() called on gpu-1-16.local at Wed Jun 14 15:01:45 2017
Module time:
	user time   =      80.91 seconds =       1.35 minutes
	system time =       0.61 seconds =       0.01 minutes
	total time  =         84 seconds =       1.40 minutes
Total time:
	user time   =     462.51 seconds =       7.71 minutes
	system time =       4.07 seconds =       0.07 minutes
	total time  =        470 seconds =       7.83 minutes

  //>>>>>>>>>>>>>>>>>>>>>>>>>>>>>>>>>>>//
  //               DFMP2               //
  //<<<<<<<<<<<<<<<<<<<<<<<<<<<<<<<<<<<//

   => Loading Basis Set <=

    Name: (AUG-CC-PVTZ AUX)
    Role: RIFIT
    Keyword: DF_BASIS_MP2
    atoms 1-3, 5-6, 8-9, 11-13 entry H          line    29 file /cbio/jclab/home/chayas/anaconda/envs/py35/share/psi4/basis/aug-cc-pvtz-ri.gbs 
    atoms 4, 7, 10, 14         entry C          line   147 file /cbio/jclab/home/chayas/anaconda/envs/py35/share/psi4/basis/aug-cc-pvtz-ri.gbs 

	 --------------------------------------------------------
	                          DF-MP2                         
	      2nd-Order Density-Fitted Moller-Plesset Theory     
	              RMP2 Wavefunction,   1 Threads             
	                                                         
	        Rob Parrish, Justin Turney, Andy Simmonett,      
	           Ed Hohenstein, and C. David Sherrill          
	 --------------------------------------------------------

   => Auxiliary Basis Set <=

  Basis Set: (AUG-CC-PVTZ AUX)
    Blend: AUG-CC-PVTZ-RI
    Number of shells: 252
    Number of basis function: 884
    Number of Cartesian functions: 1094
    Spherical Harmonics?: true
    Max angular momentum: 4

	 --------------------------------------------------------
	                 NBF =   414, NAUX =   884
	 --------------------------------------------------------
	   CLASS    FOCC     OCC    AOCC    AVIR     VIR    FVIR
	   PAIRS       0      17      17     397     397       0
	 --------------------------------------------------------


         ------------------------------------------------------------
                                     CPHF                           
                                  Rob Parrish                       
         ------------------------------------------------------------

  ==> Geometry <==

    Molecular point group: c1
    Full point group: C1

    Geometry (in Angstrom), charge = 0, multiplicity = 1:

       Center              X                  Y                   Z               Mass       
    ------------   -----------------  -----------------  -----------------  -----------------
           H         -2.330311381607     0.059207441760     0.317104885088     1.007825032070
           H         -2.186624771443     1.699110800541    -0.308327639941     1.007825032070
           H         -1.887320489812     0.324962686961    -1.367164180617     1.007825032070
           C         -1.777220831399     0.698294721860    -0.358028540098    12.000000000000
           H          0.251117647596     1.348553914657    -0.645421576356     1.007825032070
           H         -0.191925334158     1.082570588045     1.043164359131     1.007825032070
           C         -0.295071219974     0.705353137348     0.033732397413    12.000000000000
           H         -0.254172106036    -1.346936216126     0.645674610747     1.007825032070
           H          0.189429939538    -1.082225954363    -1.041908706519     1.007825032070
           C          0.293162819733    -0.704836074450    -0.032648367505    12.000000000000
           H          2.378028364156    -0.367310650526    -0.479622047702     1.007825032070
           H          2.099760620100    -1.691322963630     0.645023370579     1.007825032070
           H          1.936944376269    -0.025314770991     1.188729232124     1.007825032070
           C          1.778715446850    -0.698920535489     0.357175276378    12.000000000000

  Nuclear repulsion =  131.418494541229848
  Reference energy  = -157.354101657805671

  ==> Basis Set <==

  Basis Set: AUG-CC-PVTZ
    Blend: AUG-CC-PVTZ
    Number of shells: 146
    Number of basis function: 414
    Number of Cartesian functions: 470
    Spherical Harmonics?: true
    Max angular momentum: 3

  ==> CGRSolver (by Rob Parrish) <==

   Number of roots    =         1
   Preconditioning    =    JACOBI
   Convergence cutoff =     1E-06
   Maximum iterations =       100

  ==> CPHFRHamiltonian (by Rob Parrish) <== 

  ==> DFJK: Density-Fitted J/K Matrices <==

    J tasked:                  Yes
    K tasked:                  Yes
    wK tasked:                  No
    OpenMP threads:              1
    Integrals threads:           1
    Memory (MB):               715
    Algorithm:                Core
    Integral Cache:           NONE
    Schwarz Cutoff:          1E-12
    Fitting Condition:       1E-12

   => Auxiliary Basis Set <=

  Basis Set: (AUG-CC-PVTZ AUX)
    Blend: AUG-CC-PVTZ-JKFIT
    Number of shells: 260
    Number of basis function: 876
    Number of Cartesian functions: 1074
    Spherical Harmonics?: true
    Max angular momentum: 4

  ==> CPHF Iterations <==

  => Iterations <=

             Iter  Converged  Remaining    Residual
  CGR           1          0          1   8.303E-02
  CGR           2          0          1   1.324E-02
  CGR           3          0          1   3.489E-03
  CGR           4          0          1   8.146E-04
  CGR           5          0          1   1.202E-04
  CGR           6          0          1   2.188E-05
  CGR           7          0          1   3.815E-06
  CGR           8          1          0   8.562E-07

    CGRSolver converged.

  ==> DFCorrGrad: Density-Fitted Correlated Gradients <==

    OpenMP threads:              1
    Integrals threads:           1
    Memory (MB):               715
    Schwarz Cutoff:          0E+00
    Fitting Condition:       1E-12

   => Auxiliary Basis Set <=

  Basis Set: (AUG-CC-PVTZ AUX)
    Blend: AUG-CC-PVTZ-JKFIT
    Number of shells: 260
    Number of basis function: 876
    Number of Cartesian functions: 1074
    Spherical Harmonics?: true
    Max angular momentum: 4

	-----------------------------------------------------------
	 ==================> DF-MP2 Energies <==================== 
	-----------------------------------------------------------
	 Reference Energy          =    -157.3541016578056713 [Eh]
	 Singles Energy            =      -0.0000000000000000 [Eh]
	 Same-Spin Energy          =      -0.1653449199323419 [Eh]
	 Opposite-Spin Energy      =      -0.6392910948365336 [Eh]
	 Correlation Energy        =      -0.8046360147688755 [Eh]
	 Total Energy              =    -158.1587376725745457 [Eh]
	-----------------------------------------------------------
	 ================> DF-SCS-MP2 Energies <================== 
	-----------------------------------------------------------
	 SCS Same-Spin Scale       =       0.3333333333333333 [-]
	 SCS Opposite-Spin Scale   =       1.2000000000000000 [-]
	 SCS Same-Spin Energy      =      -0.0551149733107806 [Eh]
	 SCS Opposite-Spin Energy  =      -0.7671493138038402 [Eh]
	 SCS Correlation Energy    =      -0.8222642871146209 [Eh]
	 SCS Total Energy          =    -158.1763659449202919 [Eh]
	-----------------------------------------------------------


  -Total Gradient:
     Atom            X                  Y                   Z
    ------   -----------------  -----------------  -----------------
       1        0.003444755525     0.002181466262    -0.001326693931
       2        0.003335106611    -0.002235392050     0.000484460728
       3        0.002236897834     0.001468794865     0.003437814764
       4       -0.013709876973    -0.003782023661    -0.004108917009
       5       -0.003490200448    -0.004095147992     0.000230246674
       6       -0.002350102616    -0.003210525272    -0.003217958354
       7        0.012518107979     0.015609039683     0.007304088044
       8        0.003656963179     0.003322040087    -0.000798321528
       9        0.002843191957     0.004158826132     0.002785724623
      10       -0.012159377885    -0.015664813065    -0.006571319877
      11       -0.003675805109    -0.002037917567     0.001414243394
      12       -0.003508918306     0.002443252984    -0.000339164947
      13       -0.002142071537    -0.001424177724    -0.003453802881
      14        0.013001329793     0.003266577320     0.004159600296


*** tstop() called on gpu-1-16.local at Wed Jun 14 15:07:08 2017
Module time:
	user time   =     400.61 seconds =       6.68 minutes
	system time =       3.75 seconds =       0.06 minutes
	total time  =        407 seconds =       6.78 minutes
Total time:
	user time   =     782.21 seconds =      13.04 minutes
	system time =       7.21 seconds =       0.12 minutes
	total time  =        793 seconds =      13.22 minutes

			-----------------------------------------
			 OPTKING 2.0: for geometry optimizations 
			  - R.A. King,  Bethel University        
			-----------------------------------------

	Previous internal coordinate definitions found.
	---Fragment 1 Geometry and Gradient---
	 H          -4.4036503156        0.1118858500        0.5992413882
	 H          -4.1321219734        3.2108540825       -0.5826547987
	 H          -3.5665188507        0.6140904818       -2.5835658801
	 C          -3.3584606490        1.3195857844       -0.6765758885
	 H           0.4745435811        2.5483975741       -1.2196700196
	 H          -0.3626863195        2.0457619309        1.9712949503
	 C          -0.5576037954        1.3329242566        0.0637449929
	 H          -0.4803156710       -2.5453405669        1.2201481853
	 H           0.3579707071       -2.0451106676       -1.9689221108
	 C           0.5539974416       -1.3319471493       -0.0616964733
	 H           4.4938223445       -0.6941165352       -0.9063543174
	 H           3.9679725166       -3.1961372035        1.2189175197
	 H           3.6602944058       -0.0478379843        2.2463726949
	 C           3.3612850629       -1.3207684007        0.6749634538
	             0.0034447555        0.0021814663       -0.0013266939
	             0.0033351066       -0.0022353920        0.0004844607
	             0.0022368978        0.0014687949        0.0034378148
	            -0.0137098770       -0.0037820237       -0.0041089170
	            -0.0034902004       -0.0040951480        0.0002302467
	            -0.0023501026       -0.0032105253       -0.0032179584
	             0.0125181080        0.0156090397        0.0073040880
	             0.0036569632        0.0033220401       -0.0007983215
	             0.0028431920        0.0041588261        0.0027857246
	            -0.0121593779       -0.0156648131       -0.0065713199
	            -0.0036758051       -0.0020379176        0.0014142434
	            -0.0035089183        0.0024432530       -0.0003391649
	            -0.0021420715       -0.0014241777       -0.0034538029
	             0.0130013298        0.0032665773        0.0041596003

	---Fragment 1 Intrafragment Coordinates---
	 - Coordinate -           - BOHR/RAD -       - ANG/DEG -
	 R(1,4)           =         2.044180	       1.081733
	 R(2,4)           =         2.045549	       1.082458
	 R(3,4)           =         2.043923	       1.081598
	 R(4,7)           =         2.897076	       1.533067
	 R(5,7)           =         2.046914	       1.083180
	 R(6,7)           =         2.045697	       1.082536
	 R(7,10)          =         2.890144	       1.529398
	 R(8,10)          =         2.045789	       1.082585
	 R(9,10)          =         2.045614	       1.082493
	 R(10,14)         =         2.902354	       1.535859
	 R(11,14)         =         2.043502	       1.081375
	 R(12,14)         =         2.044741	       1.082030
	 R(13,14)         =         2.044281	       1.081787
	 B(1,4,2)         =         1.900963	     108.917165
	 B(1,4,3)         =         1.903222	     109.046598
	 B(1,4,7)         =         1.915109	     109.727692
	 B(2,4,3)         =         1.900193	     108.873063
	 B(2,4,7)         =         1.928010	     110.466855
	 B(3,4,7)         =         1.916036	     109.780796
	 B(4,7,5)         =         1.907109	     109.269273
	 B(4,7,6)         =         1.909225	     109.390535
	 B(4,7,10)        =         1.935323	     110.885847
	 B(5,7,6)         =         1.906778	     109.250346
	 B(5,7,10)        =         1.903254	     109.048449
	 B(6,7,10)        =         1.901937	     108.972945
	 B(7,10,8)        =         1.902057	     108.979860
	 B(7,10,9)        =         1.901878	     108.969588
	 B(7,10,14)       =         1.936335	     110.943802
	 B(8,10,9)        =         1.905999	     109.205704
	 B(8,10,14)       =         1.909507	     109.406691
	 B(9,10,14)       =         1.907816	     109.309781
	 B(10,14,11)      =         1.918599	     109.927645
	 B(10,14,12)      =         1.929410	     110.547053
	 B(10,14,13)      =         1.916626	     109.814578
	 B(11,14,12)      =         1.899350	     108.824721
	 B(11,14,13)      =         1.899503	     108.833494
	 B(12,14,13)      =         1.899918	     108.857288
	 D(1,4,7,5)       =        -3.139728	    -179.893185
	 D(1,4,7,6)       =        -1.053040	     -60.334726
	 D(1,4,7,10)      =         1.045074	      59.878354
	 D(2,4,7,5)       =        -1.043647	     -59.796591
	 D(2,4,7,6)       =         1.043041	      59.761868
	 D(2,4,7,10)      =         3.141155	     179.974948
	 D(3,4,7,5)       =         1.052072	      60.279267
	 D(3,4,7,6)       =         3.138760	     179.837726
	 D(3,4,7,10)      =        -1.046311	     -59.949194
	 D(4,7,10,8)      =        -1.039857	     -59.579411
	 D(4,7,10,9)      =         1.038530	      59.503387
	 D(4,7,10,14)     =         3.139823	     179.898620
	 D(5,7,10,8)      =        -3.140531	    -179.939196
	 D(5,7,10,9)      =        -1.062145	     -60.856398
	 D(5,7,10,14)     =         1.039149	      59.538835
	 D(6,7,10,8)      =         1.062590	      60.881901
	 D(6,7,10,9)      =         3.140977	     179.964700
	 D(6,7,10,14)     =        -1.040916	     -59.640067
	 D(7,10,14,11)    =        -1.390046	     -79.643782
	 D(7,10,14,12)    =         2.795935	     160.195258
	 D(7,10,14,13)    =         0.699293	      40.066564
	 D(8,10,14,11)    =         2.794055	     160.087549
	 D(8,10,14,12)    =         0.696850	      39.926589
	 D(8,10,14,13)    =        -1.399791	     -80.202105
	 D(9,10,14,11)    =         0.707720	      40.549357
	 D(9,10,14,12)    =        -1.389485	     -79.611603
	 D(9,10,14,13)    =         2.797059	     160.259703

	Current energy   :      -158.1587376726

	Energy change for the previous step:
		Projected    :        -0.0041634518
		Actual       :        -0.0030485168

	Performing BFGS update.
	Previous computed or guess Hessian on step 1.
	Steps to be used in Hessian update: 1
	Adding user-defined constraint: Fragment 1; Coordinate 58:
		Value =     0.699293; Fixed value    =     0.698130
		Force =    -0.000611; Force constant =     0.525000
	Removing off-diagonal coupling between coordinate 58 and others.
	Taking RFO optimization step.
	Going to follow RFO solution 1.
	Using RFO vector 1.

	Determining step-restricting scale parameter for RS-RFO.
	Maximum step size allowed    0.10000

	 Iter      |step|        alpha        rfo_root  
	------------------------------------------------
	    0     0.18367       1.00000           1
	    1     0.14699       4.86441           1
	    2     0.11840      13.83470           1
	    3     0.10413      22.69652           1
	    4     0.10029      25.96548           1
	    5     0.10000      26.22619           1
	------------------------------------------------
	Norm of target step-size    0.10000
	Projected energy change by RFO approximation:        -0.0013601369

	Back-transformation to cartesian coordinates...
	Successfully converged to displaced geometry.

	--- Internal Coordinate Step in ANG or DEG, aJ/ANG or AJ/DEG ---
	 ---------------------------------------------------------------------------
	   Coordinate                Previous        Force       Change         New 
	   ----------                --------       ------       ------       ------
	    1 R(1,4)          =      1.081733     0.031951     0.005876     1.087609
	    2 R(2,4)          =      1.082458     0.027237     0.004779     1.087236
	    3 R(3,4)          =      1.081598     0.032479     0.005957     1.087555
	    4 R(4,7)          =      1.533067    -0.040657    -0.010822     1.522245
	    5 R(5,7)          =      1.083180     0.035723     0.006637     1.089818
	    6 R(6,7)          =      1.082536     0.035783     0.006653     1.089190
	    7 R(7,10)         =      1.529398    -0.039808    -0.009782     1.519616
	    8 R(8,10)         =      1.082585     0.035587     0.006589     1.089174
	    9 R(9,10)         =      1.082493     0.035588     0.006600     1.089092
	   10 R(10,14)        =      1.535859    -0.033077    -0.009317     1.526543
	   11 R(11,14)        =      1.081375     0.030949     0.005638     1.087013
	   12 R(12,14)        =      1.082030     0.027783     0.004874     1.086904
	   13 R(13,14)        =      1.081787     0.031760     0.005893     1.087680
	   14 B(1,4,2)        =    108.917165    -0.000155    -0.662829   108.254336
	   15 B(1,4,3)        =    109.046598    -0.000153    -0.798857   108.247740
	   16 B(1,4,7)        =    109.727692     0.000122     0.589505   110.317197
	   17 B(2,4,3)        =    108.873063    -0.000154    -0.650328   108.222735
	   18 B(2,4,7)        =    110.466855     0.000205     0.850513   111.317369
	   19 B(3,4,7)        =    109.780796     0.000127     0.606178   110.386974
	   20 B(4,7,5)        =    109.269273    -0.000028     0.134103   109.403376
	   21 B(4,7,6)        =    109.390535    -0.000023     0.126205   109.516740
	   22 B(4,7,10)       =    110.885847     0.000269     1.080938   111.966786
	   23 B(5,7,6)        =    109.250346    -0.000078    -1.103861   108.146485
	   24 B(5,7,10)       =    109.048449    -0.000063    -0.086348   108.962102
	   25 B(6,7,10)       =    108.972945    -0.000082    -0.208279   108.764666
	   26 B(7,10,8)       =    108.979860    -0.000080    -0.263317   108.716543
	   27 B(7,10,9)       =    108.969588    -0.000080    -0.088504   108.881084
	   28 B(7,10,14)      =    110.943802     0.000275     1.098314   112.042116
	   29 B(8,10,9)       =    109.205704    -0.000083    -1.141187   108.064517
	   30 B(8,10,14)      =    109.406691    -0.000013     0.172437   109.579127
	   31 B(9,10,14)      =    109.309781    -0.000025     0.159860   109.469642
	   32 B(10,14,11)     =    109.927645     0.000144     0.584822   110.512467
	   33 B(10,14,12)     =    110.547053     0.000217     0.959792   111.506845
	   34 B(10,14,13)     =    109.814578     0.000113     0.527701   110.342279
	   35 B(11,14,12)     =    108.824721    -0.000173    -0.714895   108.109826
	   36 B(11,14,13)     =    108.833494    -0.000167    -0.959641   107.873852
	   37 B(12,14,13)     =    108.857288    -0.000145    -0.475976   108.381312
	   38 D(1,4,7,5)      =   -179.893185     0.000011     0.498907  -179.394278
	   39 D(1,4,7,6)      =    -60.334726    -0.000017    -0.688827   -61.023554
	   40 D(1,4,7,10)     =     59.878354    -0.000005    -0.173096    59.705258
	   41 D(2,4,7,5)      =    -59.796591     0.000015     0.603165   -59.193426
	   42 D(2,4,7,6)      =     59.761868    -0.000014    -0.584569    59.177299
	   43 D(2,4,7,10)     =    179.974948    -0.000002    -0.068837   179.906111
	   44 D(3,4,7,5)      =     60.279267     0.000019     0.734972    61.014239
	   45 D(3,4,7,6)      =    179.837726    -0.000010    -0.452762   179.384963
[...]
  CGR           3          0          1   3.548E-03
  CGR           4          0          1   8.168E-04
  CGR           5          0          1   1.197E-04
  CGR           6          0          1   2.218E-05
  CGR           7          0          1   3.916E-06
  CGR           8          1          0   9.124E-07

    CGRSolver converged.

  ==> DFCorrGrad: Density-Fitted Correlated Gradients <==

    OpenMP threads:              1
    Integrals threads:           1
    Memory (MB):               715
    Schwarz Cutoff:          0E+00
    Fitting Condition:       1E-12

   => Auxiliary Basis Set <=

  Basis Set: (AUG-CC-PVTZ AUX)
    Blend: AUG-CC-PVTZ-JKFIT
    Number of shells: 260
    Number of basis function: 876
    Number of Cartesian functions: 1074
    Spherical Harmonics?: true
    Max angular momentum: 4

	-----------------------------------------------------------
	 ==================> DF-MP2 Energies <==================== 
	-----------------------------------------------------------
	 Reference Energy          =    -157.3552507208908651 [Eh]
	 Singles Energy            =      -0.0000000000000000 [Eh]
	 Same-Spin Energy          =      -0.1654703152519957 [Eh]
	 Opposite-Spin Energy      =      -0.6393388164093210 [Eh]
	 Correlation Energy        =      -0.8048091316613167 [Eh]
	 Total Energy              =    -158.1600598525521946 [Eh]
	-----------------------------------------------------------
	 ================> DF-SCS-MP2 Energies <================== 
	-----------------------------------------------------------
	 SCS Same-Spin Scale       =       0.3333333333333333 [-]
	 SCS Opposite-Spin Scale   =       1.2000000000000000 [-]
	 SCS Same-Spin Energy      =      -0.0551567717506652 [Eh]
	 SCS Opposite-Spin Energy  =      -0.7672065796911852 [Eh]
	 SCS Correlation Energy    =      -0.8223633514418505 [Eh]
	 SCS Total Energy          =    -158.1776140723327160 [Eh]
	-----------------------------------------------------------


  -Total Gradient:
     Atom            X                  Y                   Z
    ------   -----------------  -----------------  -----------------
       1       -0.000006807000    -0.000000042214    -0.000008870868
       2       -0.000009280988    -0.000003603435    -0.000000671987
       3        0.000010777656    -0.000000508522     0.000002072032
       4        0.000001240347     0.000006847420     0.000037778911
       5        0.000012465493     0.000003718852     0.000004786047
       6       -0.000006798622     0.000006154143    -0.000021811850
       7       -0.000480192170    -0.000279608679     0.001884302895
       8        0.000019478250    -0.000006138224    -0.000021064265
       9       -0.000012335696     0.000000897307    -0.000013495547
      10        0.000780961843     0.000906202516    -0.003050440766
      11       -0.000023081611    -0.000012218569     0.000016234434
      12        0.000006441311    -0.000008337867     0.000014251849
      13        0.000437028764     0.002033338599    -0.001756737655
      14       -0.000729897582    -0.002646701329     0.002913666771


*** tstop() called on gpu-1-16.local at Wed Jun 14 15:31:13 2017
Module time:
	user time   =     364.88 seconds =       6.08 minutes
	system time =       3.28 seconds =       0.05 minutes
	total time  =        368 seconds =       6.13 minutes
Total time:
	user time   =    2214.03 seconds =      36.90 minutes
	system time =      20.15 seconds =       0.34 minutes
	total time  =       2238 seconds =      37.30 minutes

			-----------------------------------------
			 OPTKING 2.0: for geometry optimizations 
			  - R.A. King,  Bethel University        
			-----------------------------------------

	Previous internal coordinate definitions found.
	---Fragment 1 Geometry and Gradient---
	 H          -4.4482375671        0.0837203246        0.5279673869
	 H          -4.1592769689        3.2025327903       -0.5907984125
	 H          -3.5709765465        0.6397615546       -2.6274057303
	 C          -3.3490412180        1.3169803258       -0.6979448139
	 H           0.4834412319        2.5701363483       -1.1586214220
	 H          -0.3917190484        2.0447159894        1.9836809701
	 C          -0.5874011983        1.3052858998        0.0695156211
	 H          -0.4632723442       -2.5308845040        1.2740962019
	 H           0.3079962635       -2.1156159918       -1.9080908954
	 C           0.5732230236       -1.3135782712       -0.0282426240
	 H           4.4942281836       -0.6368609384       -0.9204471715
	 H           4.0386624752       -3.1842879654        1.1630358229
	 H           3.7205671429       -0.0335460126        2.2303672812
	 C           3.3622608820       -1.3120197899        0.6588735759
	            -0.0000068070       -0.0000000422       -0.0000088709
	            -0.0000092810       -0.0000036034       -0.0000006720
	             0.0000107777       -0.0000005085        0.0000020720
	             0.0000012403        0.0000068474        0.0000377789
	             0.0000124655        0.0000037189        0.0000047860
	            -0.0000067986        0.0000061541       -0.0000218119
	            -0.0004801922       -0.0002796087        0.0018843029
	             0.0000194782       -0.0000061382       -0.0000210643
	            -0.0000123357        0.0000008973       -0.0000134955
	             0.0007809618        0.0009062025       -0.0030504408
	            -0.0000230816       -0.0000122186        0.0000162344
	             0.0000064413       -0.0000083379        0.0000142518
	             0.0004370288        0.0020333386       -0.0017567377
	            -0.0007298976       -0.0026467013        0.0029136668

	---Fragment 1 Intrafragment Coordinates---
	 - Coordinate -           - BOHR/RAD -       - ANG/DEG -
	 R(1,4)           =         2.057188	       1.088617
	 R(2,4)           =         2.055060	       1.087491
	 R(3,4)           =         2.056867	       1.088447
	 R(4,7)           =         2.866320	       1.516791
	 R(5,7)           =         2.062734	       1.091552
	 R(6,7)           =         2.061329	       1.090808
	 R(7,10)          =         2.866192	       1.516723
	 R(8,10)          =         2.062097	       1.091215
	 R(9,10)          =         2.060932	       1.090598
	 R(10,14)         =         2.872432	       1.520025
	 R(11,14)         =         2.057047	       1.088543
	 R(12,14)         =         2.053555	       1.086694
	 R(13,14)         =         2.057297	       1.088675
	 B(1,4,2)         =         1.884210	     107.957285
	 B(1,4,3)         =         1.879655	     107.696283
	 B(1,4,7)         =         1.931361	     110.658851
	 B(2,4,3)         =         1.884368	     107.966320
	 B(2,4,7)         =         1.949427	     111.693945
	 B(3,4,7)         =         1.932408	     110.718820
	 B(4,7,5)         =         1.915863	     109.770861
	 B(4,7,6)         =         1.916263	     109.793755
	 B(4,7,10)        =         1.965726	     112.627794
	 B(5,7,6)         =         1.858388	     106.477776
	 B(5,7,10)        =         1.906839	     109.253813
	 B(6,7,10)        =         1.897574	     108.722984
	 B(7,10,8)        =         1.890522	     108.318928
	 B(7,10,9)        =         1.911955	     109.546974
	 B(7,10,14)       =         1.965490	     112.614263
	 B(8,10,9)        =         1.856310	     106.358706
	 B(8,10,14)       =         1.914836	     109.712025
	 B(9,10,14)       =         1.921288	     110.081715
	 B(10,14,11)      =         1.929257	     110.538257
	 B(10,14,12)      =         1.958487	     112.213032
	 B(10,14,13)      =         1.930683	     110.620014
	 B(11,14,12)      =         1.882288	     107.847183
	 B(11,14,13)      =         1.861534	     106.658042
	 B(12,14,13)      =         1.898293	     108.764188
	 D(1,4,7,5)       =        -3.127360	    -179.184549
	 D(1,4,7,6)       =        -1.090133	     -62.459993
	 D(1,4,7,10)      =         1.027065	      58.846476
	 D(2,4,7,5)       =        -1.027632	     -58.879000
	 D(2,4,7,6)       =         1.009595	      57.845556
	 D(2,4,7,10)      =         3.126793	     179.152024
	 D(3,4,7,5)       =         1.073009	      61.478895
	 D(3,4,7,6)       =         3.110237	     178.203451
	 D(3,4,7,10)      =        -1.055751	     -60.490081
	 D(4,7,10,8)      =        -1.053014	     -60.333237
	 D(4,7,10,9)      =         0.964912	      55.285384
	 D(4,7,10,14)     =         3.109237	     178.146142
	 D(5,7,10,8)      =         3.096317	     177.405875
	 D(5,7,10,9)      =        -1.168943	     -66.975505
	 D(5,7,10,14)     =         0.975382	      55.885254
	 D(6,7,10,8)      =         1.074793	      61.581095
	 D(6,7,10,9)      =         3.092718	     177.199716
	 D(6,7,10,14)     =        -1.046142	     -59.939525
	 D(7,10,14,11)    =        -1.354191	     -77.589419
	 D(7,10,14,12)    =         2.827068	     161.979072
	 D(7,10,14,13)    =         0.703676	      40.317664
	 D(8,10,14,11)    =         2.821938	     161.685139
	 D(8,10,14,12)    =         0.720012	      41.253630
	 D(8,10,14,13)    =        -1.403380	     -80.407778
	 D(9,10,14,11)    =         0.784898	      44.971347
	 D(9,10,14,12)    =        -1.317028	     -75.460161
	 D(9,10,14,13)    =         2.842765	     162.878430

	Current energy   :      -158.1600598526

	Energy change for the previous step:
		Projected    :        -0.0000036300
		Actual       :        -0.0000012767

	Performing BFGS update.
	Previous computed or guess Hessian on step 1.
	Steps to be used in Hessian update: 5 4
	Adding user-defined constraint: Fragment 1; Coordinate 58:
		Value =     0.703676; Fixed value    =     0.698130
		Force =    -0.003466; Force constant =     0.625000
	Removing off-diagonal coupling between coordinate 58 and others.
	Taking RFO optimization step.
	Going to follow RFO solution 1.
	Rejecting RFO root 1 because normalization gives large value.
	Using RFO vector 2.
	Norm of target step-size    0.00187
	Projected energy change by RFO approximation:        -0.0000000054

	Back-transformation to cartesian coordinates...
	Successfully converged to displaced geometry.

	--- Internal Coordinate Step in ANG or DEG, aJ/ANG or AJ/DEG ---
	 ---------------------------------------------------------------------------
	   Coordinate                Previous        Force       Change         New 
	   ----------                --------       ------       ------       ------
	    1 R(1,4)          =      1.088617     0.000013    -0.000015     1.088602
	    2 R(2,4)          =      1.087491    -0.000003     0.000001     1.087492
	    3 R(3,4)          =      1.088447     0.000024    -0.000016     1.088431
	    4 R(4,7)          =      1.516791     0.000035     0.000060     1.516851
	    5 R(5,7)          =      1.091552    -0.000049    -0.000029     1.091522
	    6 R(6,7)          =      1.090808     0.000154     0.000013     1.090822
	    7 R(7,10)         =      1.516723    -0.000120     0.000015     1.516739
	    8 R(8,10)         =      1.091215     0.000160     0.000007     1.091222
	    9 R(9,10)         =      1.090598    -0.000112    -0.000048     1.090550
	   10 R(10,14)        =      1.520025     0.000139     0.000092     1.520117
	   11 R(11,14)        =      1.088543     0.000240     0.000031     1.088573
	   12 R(12,14)        =      1.086694    -0.000109    -0.000019     1.086675
	   13 R(13,14)        =      1.088675     0.000018    -0.000007     1.088667
	   14 B(1,4,2)        =    107.957285     0.000001     0.002348   107.959633
	   15 B(1,4,3)        =    107.696283     0.000000     0.006443   107.702726
	   16 B(1,4,7)        =    110.658851    -0.000001    -0.008692   110.650159
	   17 B(2,4,3)        =    107.966320    -0.000000     0.002458   107.968777
	   18 B(2,4,7)        =    111.693945    -0.000001    -0.006398   111.687547
	   19 B(3,4,7)        =    110.718820     0.000002     0.004497   110.723317
	   20 B(4,7,5)        =    109.770861    -0.000001    -0.011200   109.759661
	   21 B(4,7,6)        =    109.793755     0.000001     0.002927   109.796682
	   22 B(4,7,10)       =    112.627794     0.000000    -0.000621   112.627173
	   23 B(5,7,6)        =    106.477776     0.000000     0.017335   106.495111
	   24 B(5,7,10)       =    109.253813     0.000000    -0.002178   109.251635
	   25 B(6,7,10)       =    108.722984    -0.000001    -0.005177   108.717807
	   26 B(7,10,8)       =    108.318928    -0.000003    -0.017212   108.301716
	   27 B(7,10,9)       =    109.546974     0.000003     0.014238   109.561212
	   28 B(7,10,14)      =    112.614263    -0.000001    -0.009220   112.605043
	   29 B(8,10,9)       =    106.358706     0.000000     0.018223   106.376928
	   30 B(8,10,14)      =    109.712025     0.000001    -0.001619   109.710407
	   31 B(9,10,14)      =    110.081715    -0.000001    -0.003027   110.078687
	   32 B(10,14,11)     =    110.538257     0.000000     0.000569   110.538826
	   33 B(10,14,12)     =    112.213032     0.000000    -0.002182   112.210850
	   34 B(10,14,13)     =    110.620014    -0.000001    -0.006821   110.613193
	   35 B(11,14,12)     =    107.847183    -0.000000     0.000233   107.847416
	   36 B(11,14,13)     =    106.658042    -0.000002     0.002645   106.660688
	   37 B(12,14,13)     =    108.764188     0.000003     0.006054   108.770242
	   38 D(1,4,7,5)      =   -179.184549     0.000000     0.016652  -179.167897
	   39 D(1,4,7,6)      =    -62.459993     0.000000     0.032838   -62.427155
	   40 D(1,4,7,10)     =     58.846476     0.000000     0.027880    58.874356
	   41 D(2,4,7,5)      =    -58.879000    -0.000000     0.009427   -58.869573
	   42 D(2,4,7,6)      =     57.845556     0.000000     0.025613    57.871169
	   43 D(2,4,7,10)     =    179.152024    -0.000000     0.020655   179.172679
	   44 D(3,4,7,5)      =     61.478895    -0.000000     0.011319    61.490213
	   45 D(3,4,7,6)      =    178.203451     0.000000     0.027505   178.230955
	   46 D(3,4,7,10)     =    -60.490081    -0.000000     0.022547   -60.467534
	   47 D(4,7,10,8)     =    -60.333237    -0.000000    -0.007458   -60.340696
	   48 D(4,7,10,9)     =     55.285384    -0.000000     0.012357    55.297741
	   49 D(4,7,10,14)    =    178.146142    -0.000000     0.012413   178.158555
	   50 D(5,7,10,8)     =    177.405875    -0.000000     0.008817   177.414691
	   51 D(5,7,10,9)     =    -66.975505     0.000000     0.028632   -66.946872
	   52 D(5,7,10,14)    =     55.885254     0.000000     0.028688    55.913942
	   53 D(6,7,10,8)     =     61.581095    -0.000000    -0.007791    61.573304
	   54 D(6,7,10,9)     =    177.199716    -0.000000     0.012024   177.211741
	   55 D(6,7,10,14)    =    -59.939525     0.000000     0.012080   -59.927445
	   56 D(7,10,14,11)   =    -77.589419    -0.000001    -0.001470   -77.590889
	   57 D(7,10,14,12)   =    161.979072    -0.000001    -0.000690   161.978382
	   58 D(7,10,14,13)   =     40.317664    -0.000001    -0.002094    40.315570
	   59 D(8,10,14,11)   =    161.685139     0.000000     0.027651   161.712790
	   60 D(8,10,14,12)   =     41.253630     0.000000     0.028431    41.282061
	   61 D(8,10,14,13)   =    -80.407778    -0.000001     0.027027   -80.380751
	   62 D(9,10,14,11)   =     44.971347     0.000000     0.008238    44.979585
	   63 D(9,10,14,12)   =    -75.460161     0.000000     0.009017   -75.451144
	   64 D(9,10,14,13)   =    162.878430    -0.000001     0.007613   162.886044
	 ---------------------------------------------------------------------------
	Successfully symmetrized geometry.
	 Forces used to impose fixed constraints are not included.
	  Forces zeroed: 58 

  ==> Convergence Check <==

  Measures of convergence in internal coordinates in au.
  Criteria marked as inactive (o), active & met (*), and active & unmet ( ).
  ---------------------------------------------------------------------------------------------
   Step     Total Energy     Delta E     MAX Force     RMS Force      MAX Disp      RMS Disp   
  ---------------------------------------------------------------------------------------------
    Convergence Criteria    1.00e-06 *    3.00e-04 *             o    1.20e-03 *             o
  ---------------------------------------------------------------------------------------------
      6    -158.16005985   -1.28e-06      4.11e-05 *    1.54e-05 o    5.73e-04 *    2.34e-04 o  ~
  ---------------------------------------------------------------------------------------------


  **** Optimization is complete! (in 6 steps) ****

  ==> Optimization Summary <==

  Measures of convergence in internal coordinates in au.
  --------------------------------------------------------------------------------------------------------------- ~
   Step         Total Energy             Delta E       MAX Force       RMS Force        MAX Disp        RMS Disp  ~
  --------------------------------------------------------------------------------------------------------------- ~
      1    -158.155689155817   -158.155689155817      0.01286888      0.00561938      0.02512167      0.01250578  ~
      2    -158.158737672575     -0.003048516758      0.00493486      0.00228707      0.02991637      0.01252103  ~
      3    -158.159771953472     -0.001034280898      0.00166917      0.00065401      0.04073816      0.01251448  ~
      4    -158.160026829536     -0.000254876063      0.00073188      0.00019098      0.03623966      0.01146644  ~
      5    -158.160058575893     -0.000031746357      0.00019532      0.00005103      0.00535234      0.00202163  ~
      6    -158.160059852552     -0.000001276659      0.00007372      0.00001792      0.00057313      0.00023431  ~
  --------------------------------------------------------------------------------------------------------------- ~

	Writing optimization data to binary file.
	Final energy is   -158.1600598525522
	Final (previous) structure:
	Cartesian Geometry (in Angstrom)
	    H    -2.3539059389   0.0443028877   0.2793883080
	    H    -2.2009945762   1.6947073624  -0.3126370547
	    H    -1.8896794008   0.3385472336  -1.3903632302
	    C    -1.7722362832   0.6969159726  -0.3693364883
	    H     0.2558260816   1.3600575785  -0.6131160499
	    H    -0.2072887926   1.0820170997   1.0497187585
	    C    -0.3108393264   0.6907275488   0.0367860823
	    H    -0.2451531659  -1.3392863971   0.6742226716
	    H     0.1629846030  -1.1195357650  -1.0097182137
	    C     0.3033365596  -0.6951156828  -0.0149453529
	    H     2.3782431250  -0.3370122936  -0.4870796649
	    H     2.1371681350  -1.6850526169   0.6154520502
	    H     1.9688393351  -0.0177517853   1.1802595320
	    C     1.7792318281  -0.6942909700   0.3486608797
	Saving final (previous) structure.
			--------------------------
			 OPTKING Finished Execution 
			--------------------------

    Final optimized geometry and variables:
    Molecular point group: c1
    Full point group: C1

    Geometry (in Angstrom), charge = 0, multiplicity = 1:

    H           -2.353905938923     0.044302887665     0.279388308036
    H           -2.200994576164     1.694707362394    -0.312637054741
    H           -1.889679400805     0.338547233617    -1.390363230215
    C           -1.772236283187     0.696915972563    -0.369336488344
    H            0.255826081588     1.360057578478    -0.613116049915
    H           -0.207288792597     1.082017099652     1.049718758498
    C           -0.310839326421     0.690727548849     0.036786082304
    H           -0.245153165896    -1.339286397073     0.674222671598
    H            0.162984602996    -1.119535764998    -1.009718213742
    C            0.303336559552    -0.695115682818    -0.014945352917
    H            2.378243124954    -0.337012293646    -0.487079664881
    H            2.137168135041    -1.685052616893     0.615452050240
    H            1.968839335060    -0.017751785290     1.180259531992
    C            1.779231828073    -0.694290970025     0.348660879704

	Cleaning optimization helper files.

*** Psi4 exiting successfully. Buy a developer a beer!
