
    -----------------------------------------------------------------------
          Psi4: An Open-Source Ab Initio Electronic Structure Package
                               Psi4 1.1 release

                         Git: Rev {HEAD} add49b9 


    R. M. Parrish, L. A. Burns, D. G. A. Smith, A. C. Simmonett,
    A. E. DePrince III, E. G. Hohenstein, U. Bozkaya, A. Yu. Sokolov,
    R. Di Remigio, R. M. Richard, J. F. Gonthier, A. M. James,
    H. R. McAlexander, A. Kumar, M. Saitow, X. Wang, B. P. Pritchard,
    P. Verma, H. F. Schaefer III, K. Patkowski, R. A. King, E. F. Valeev,
    F. A. Evangelista, J. M. Turney, T. D. Crawford, and C. D. Sherrill,
    J. Chem. Theory Comput. in press (2017).
    (doi: 10.1021/acs.jctc.7b00174)

    -----------------------------------------------------------------------


    Psi4 started on: Wednesday, 14 June 2017 02:31PM

    Process ID:  28282
    PSIDATADIR: /cbio/jclab/home/chayas/anaconda/envs/py35/share/psi4
    Memory:     500.0 MiB
    Threads:    1
    
  ==> Input File <==

--------------------------------------------------------------------------

memory 1000 mb

molecule butane {
  symmetry C1
  0 1 
  H      1.604   0.760   -8.260
  H      1.745   2.388   -8.880
  H      2.043   1.024   -9.930
  C      2.142   1.395   -8.932
  H      4.169   2.051   -9.210
  H      3.731   1.788   -7.539
  C      3.631   1.416   -8.537
  H      3.665   -0.647   -7.940
  H      4.104   -0.384   -9.610
  C      4.203   -0.012   -8.612
  H      6.292   -0.184   -9.082
  H      5.876   -0.743   -7.480
  H      5.941   0.969   -7.818
  C      5.691   0.009   -8.218
  units Angstrom
}

dih_string = "7 10 14 13 10"
set optking fixed_dihedral = $dih_string

optimize('MP2/aug-cc-pvtz')
--------------------------------------------------------------------------

  Memory set to 953.674 MiB by Python driver.
gradient() will perform analytic gradient computation.

*** tstart() called on gpu-1-4.local
*** at Wed Jun 14 14:31:06 2017

    SCF Algorithm Type (re)set to DF.

*** tstart() called on gpu-1-4.local
*** at Wed Jun 14 14:31:06 2017

   => Loading Basis Set <=

    Name: AUG-CC-PVTZ
    Role: ORBITAL
    Keyword: BASIS
    atoms 1-3, 5-6, 8-9, 11-13 entry H          line    34 file /cbio/jclab/home/chayas/anaconda/envs/py35/share/psi4/basis/aug-cc-pvtz.gbs 
    atoms 4, 7, 10, 14         entry C          line   221 file /cbio/jclab/home/chayas/anaconda/envs/py35/share/psi4/basis/aug-cc-pvtz.gbs 


         ---------------------------------------------------------
                                   SCF
            by Justin Turney, Rob Parrish, and Andy Simmonett
                              RHF Reference
                        1 Threads,    953 MiB Core
         ---------------------------------------------------------

  ==> Geometry <==

    Molecular point group: c1
    Full point group: C1

    Geometry (in Angstrom), charge = 0, multiplicity = 1:

       Center              X                  Y                   Z               Mass       
    ------------   -----------------  -----------------  -----------------  -----------------
           H         -2.312793382205     0.057965294236     0.314776029323     1.007825032070
           H         -2.171793382205     1.685965294236    -0.305223970677     1.007825032070
           H         -1.873793382205     0.321965294236    -1.355223970677     1.007825032070
           C         -1.774793382205     0.692965294236    -0.357223970677    12.000000000000
           H          0.252206617795     1.348965294236    -0.635223970677     1.007825032070
           H         -0.185793382205     1.085965294236     1.035776029323     1.007825032070
           C         -0.285793382205     0.713965294236     0.037776029323    12.000000000000
           H         -0.251793382205    -1.349034705764     0.634776029323     1.007825032070
           H          0.187206617795    -1.086034705764    -1.035223970677     1.007825032070
           C          0.286206617795    -0.714034705764    -0.037223970677    12.000000000000
           H          2.375206617795    -0.886034705764    -0.507223970677     1.007825032070
           H          1.959206617795    -1.445034705764     1.094776029323     1.007825032070
           H          2.024206617795     0.266965294236     0.756776029323     1.007825032070
           C          1.774206617795    -0.693034705764     0.356776029323    12.000000000000

  Running in c1 symmetry.

  Rotational constants: A =      0.76953  B =      0.12464  C =      0.11638 [cm^-1]
  Rotational constants: A =  23069.91805  B =   3736.69211  C =   3488.95324 [MHz]
  Nuclear repulsion =  131.850097798845155

  Charge       = 0
  Multiplicity = 1
  Electrons    = 34
  Nalpha       = 17
  Nbeta        = 17

  ==> Algorithm <==

  SCF Algorithm Type is DF.
  DIIS enabled.
  MOM disabled.
  Fractional occupation disabled.
  Guess Type is SAD.
  Energy threshold   = 1.00e-10
  Density threshold  = 1.00e-10
  Integral threshold = 0.00e+00

  ==> Primary Basis <==

  Basis Set: AUG-CC-PVTZ
    Blend: AUG-CC-PVTZ
    Number of shells: 146
    Number of basis function: 414
    Number of Cartesian functions: 470
    Spherical Harmonics?: true
    Max angular momentum: 3

   => Loading Basis Set <=

    Name: (AUG-CC-PVTZ AUX)
    Role: JKFIT
    Keyword: DF_BASIS_SCF
    atoms 1-3, 5-6, 8-9, 11-13 entry H          line    69 file /cbio/jclab/home/chayas/anaconda/envs/py35/share/psi4/basis/aug-cc-pvtz-jkfit.gbs 
    atoms 4, 7, 10, 14         entry C          line   161 file /cbio/jclab/home/chayas/anaconda/envs/py35/share/psi4/basis/aug-cc-pvtz-jkfit.gbs 

  ==> Pre-Iterations <==

   -------------------------------------------------------
    Irrep   Nso     Nmo     Nalpha   Nbeta   Ndocc  Nsocc
   -------------------------------------------------------
     A        414     414       0       0       0       0
   -------------------------------------------------------
    Total     414     414      17      17      17       0
   -------------------------------------------------------

  ==> Integral Setup <==

  ==> DFJK: Density-Fitted J/K Matrices <==

    J tasked:                  Yes
    K tasked:                  Yes
    wK tasked:                  No
    OpenMP threads:              1
    Integrals threads:           1
    Memory (MB):               715
    Algorithm:                Core
    Integral Cache:           NONE
    Schwarz Cutoff:          1E-12
    Fitting Condition:       1E-12

   => Auxiliary Basis Set <=

  Basis Set: (AUG-CC-PVTZ AUX)
    Blend: AUG-CC-PVTZ-JKFIT
    Number of shells: 260
    Number of basis function: 876
    Number of Cartesian functions: 1074
    Spherical Harmonics?: true
    Max angular momentum: 4

  Minimum eigenvalue in the overlap matrix is 8.3604294359E-06.
  Using Symmetric Orthogonalization.

  SCF Guess: Superposition of Atomic Densities via on-the-fly atomic UHF.

  ==> Iterations <==

                           Total Energy        Delta E     RMS |[F,P]|

   @DF-RHF iter   0:  -158.78064654781207   -1.58781e+02   9.13789e-03 
   @DF-RHF iter   1:  -157.20915055639497    1.57150e+00   1.11612e-03 
   @DF-RHF iter   2:  -157.32674729316031   -1.17597e-01   4.31268e-04 DIIS
   @DF-RHF iter   3:  -157.34504067325571   -1.82934e-02   1.24458e-04 DIIS
   @DF-RHF iter   4:  -157.34746786992631   -2.42720e-03   2.17690e-05 DIIS
   @DF-RHF iter   5:  -157.34754654167810   -7.86718e-05   7.13157e-06 DIIS
   @DF-RHF iter   6:  -157.34755424580953   -7.70413e-06   1.35393e-06 DIIS
   @DF-RHF iter   7:  -157.34755462896618   -3.83157e-07   2.19856e-07 DIIS
   @DF-RHF iter   8:  -157.34755464039461   -1.14284e-08   3.81428e-08 DIIS
   @DF-RHF iter   9:  -157.34755464070309   -3.08489e-10   9.61407e-09 DIIS
   @DF-RHF iter  10:  -157.34755464072293   -1.98384e-11   2.62116e-09 DIIS
   @DF-RHF iter  11:  -157.34755464072549   -2.55795e-12   7.27600e-10 DIIS
   @DF-RHF iter  12:  -157.34755464072620   -7.10543e-13   1.47475e-10 DIIS
   @DF-RHF iter  13:  -157.34755464072526    9.37916e-13   3.18429e-11 DIIS

  ==> Post-Iterations <==

    Orbital Energies (a.u.)
    -----------------------

    Doubly Occupied:                                                      

       1A    -11.207498     2A    -11.205274     3A    -11.198304  
       4A    -11.196867     5A     -1.070738     6A     -0.980905  
       7A     -0.861145     8A     -0.795620     9A     -0.646345  
      10A     -0.587252    11A     -0.577657    12A     -0.571680  
      13A     -0.511418    14A     -0.505078    15A     -0.471561  
      16A     -0.469473    17A     -0.440403  

    Virtual:                                                              

      18A      0.032361    19A      0.037798    20A      0.039554  
      21A      0.040111    22A      0.058246    23A      0.059383  
      24A      0.060483    25A      0.061102    26A      0.076224  
      27A      0.083343    28A      0.103398    29A      0.112875  
      30A      0.122387    31A      0.130487    32A      0.139585  
      33A      0.142067    34A      0.142611    35A      0.144486  
      36A      0.148411    37A      0.161243    38A      0.165624  
      39A      0.168139    40A      0.173735    41A      0.196331  
      42A      0.201337    43A      0.217995    44A      0.223740  
      45A      0.241443    46A      0.250847    47A      0.255949  
      48A      0.265713    49A      0.281178    50A      0.282964  
      51A      0.290540    52A      0.310014    53A      0.319011  
      54A      0.335223    55A      0.341242    56A      0.345673  
      57A      0.357886    58A      0.359370    59A      0.360008  
      60A      0.365332    61A      0.370131    62A      0.370981  
      63A      0.384148    64A      0.388939    65A      0.389561  
      66A      0.392409    67A      0.395508    68A      0.397314  
      69A      0.406098    70A      0.409691    71A      0.415062  
      72A      0.432825    73A      0.441294    74A      0.444136  
      75A      0.447770    76A      0.463579    77A      0.464426  
      78A      0.465698    79A      0.469166    80A      0.486866  
      81A      0.490894    82A      0.500857    83A      0.509304  
      84A      0.511085    85A      0.518903    86A      0.521531  
      87A      0.525532    88A      0.531869    89A      0.540575  
      90A      0.544591    91A      0.547257    92A      0.557852  
      93A      0.561173    94A      0.577624    95A      0.583831  
      96A      0.588607    97A      0.591937    98A      0.616648  
      99A      0.619826   100A      0.634277   101A      0.641161  
     102A      0.652434   103A      0.677186   104A      0.680747  
     105A      0.697357   106A      0.718886   107A      0.751921  
     108A      0.774037   109A      0.793020   110A      0.815398  
     111A      0.824539   112A      0.829429   113A      0.833398  
     114A      0.838727   115A      0.846384   116A      0.857130  
     117A      0.867965   118A      0.880109   119A      0.884611  
     120A      0.889361   121A      0.893935   122A      0.899861  
     123A      0.918955   124A      0.920781   125A      0.921718  
     126A      0.926430   127A      0.933438   128A      0.941322  
     129A      0.951333   130A      0.954832   131A      0.966733  
     132A      0.976478   133A      0.982242   134A      0.989905  
     135A      0.993381   136A      1.016719   137A      1.025648  
     138A      1.039540   139A      1.047016   140A      1.060907  
     141A      1.074259   142A      1.080999   143A      1.084807  
     144A      1.091145   145A      1.104699   146A      1.106182  
     147A      1.121151   148A      1.142263   149A      1.153309  
     150A      1.158411   151A      1.160027   152A      1.170301  
     153A      1.185293   154A      1.197678   155A      1.217852  
     156A      1.230725   157A      1.237399   158A      1.245240  
     159A      1.252692   160A      1.257543   161A      1.262390  
     162A      1.269921   163A      1.276724   164A      1.293329  
     165A      1.297793   166A      1.307425   167A      1.314469  
     168A      1.318736   169A      1.338851   170A      1.356860  
     171A      1.365627   172A      1.393165   173A      1.406737  
     174A      1.420861   175A      1.435936   176A      1.449633  
     177A      1.465208   178A      1.479985   179A      1.487348  
     180A      1.495027   181A      1.517011   182A      1.530513  
     183A      1.540356   184A      1.553849   185A      1.569641  
     186A      1.594273   187A      1.601808   188A      1.613344  
     189A      1.626837   190A      1.644202   191A      1.650841  
     192A      1.674353   193A      1.681250   194A      1.694105  
     195A      1.704540   196A      1.704768   197A      1.711050  
     198A      1.718655   199A      1.723847   200A      1.728855  
     201A      1.736318   202A      1.753802   203A      1.757801  
     204A      1.767544   205A      1.770574   206A      1.774736  
     207A      1.786214   208A      1.809065   209A      1.825890  
     210A      1.834073   211A      1.857510   212A      1.880197  
     213A      1.907258   214A      1.913854   215A      1.933277  
     216A      1.962827   217A      1.972489   218A      1.973593  
     219A      1.985501   220A      2.008199   221A      2.013802  
     222A      2.019063   223A      2.035371   224A      2.040481  
     225A      2.056458   226A      2.071751   227A      2.072993  
     228A      2.088353   229A      2.101059   230A      2.151499  
     231A      2.166283   232A      2.193362   233A      2.197865  
     234A      2.215542   235A      2.236775   236A      2.261506  
     237A      2.273803   238A      2.281798   239A      2.299655  
     240A      2.309180   241A      2.321694   242A      2.350862  
     243A      2.365031   244A      2.370454   245A      2.374176  
     246A      2.410000   247A      2.424821   248A      2.450933  
     249A      2.461769   250A      2.481466   251A      2.511108  
     252A      2.544842   253A      2.583091   254A      2.612783  
     255A      2.620125   256A      2.672262   257A      2.789229  
     258A      2.867454   259A      2.953088   260A      3.029833  
     261A      3.182710   262A      3.251637   263A      3.284584  
     264A      3.361805   265A      3.398049   266A      3.420445  
     267A      3.439430   268A      3.457138   269A      3.468244  
     270A      3.483622   271A      3.526340   272A      3.557744  
     273A      3.572533   274A      3.582135   275A      3.592304  
     276A      3.600343   277A      3.624685   278A      3.669678  
     279A      3.679304   280A      3.693359   281A      3.699155  
     282A      3.710426   283A      3.716494   284A      3.740735  
     285A      3.748449   286A      3.780768   287A      3.794101  
     288A      3.799892   289A      3.828209   290A      3.845581  
     291A      3.849128   292A      3.864960   293A      3.880520  
     294A      3.891179   295A      3.916840   296A      3.922789  
     297A      3.959651   298A      3.982989   299A      3.984652  
     300A      4.000845   301A      4.010735   302A      4.013729  
     303A      4.029615   304A      4.040791   305A      4.058688  
     306A      4.068537   307A      4.080095   308A      4.100862  
     309A      4.165372   310A      4.178762   311A      4.197609  
     312A      4.209920   313A      4.239817   314A      4.249846  
     315A      4.252822   316A      4.275117   317A      4.284870  
     318A      4.296943   319A      4.315045   320A      4.328878  
     321A      4.357851   322A      4.371730   323A      4.385268  
     324A      4.439073   325A      4.459649   326A      4.478745  
     327A      4.533124   328A      4.541341   329A      4.559291  
     330A      4.577980   331A      4.608060   332A      4.648943  
     333A      4.667557   334A      4.679239   335A      4.703409  
     336A      4.719331   337A      4.744093   338A      4.755756  
     339A      4.772328   340A      4.805681   341A      4.820059  
     342A      4.874293   343A      4.877272   344A      4.887892  
     345A      4.902199   346A      4.931770   347A      4.952016  
     348A      4.973978   349A      4.985700   350A      5.005536  
     351A      5.027692   352A      5.053791   353A      5.065112  
     354A      5.117240   355A      5.140344   356A      5.153567  
     357A      5.193052   358A      5.210417   359A      5.219739  
     360A      5.255999   361A      5.262815   362A      5.279552  
     363A      5.301288   364A      5.331343   365A      5.353882  
     366A      5.359479   367A      5.373776   368A      5.409347  
     369A      5.438942   370A      5.460080   371A      5.468552  
     372A      5.487130   373A      5.511878   374A      5.528272  
     375A      5.564981   376A      5.580221   377A      5.607012  
     378A      5.647965   379A      5.655317   380A      5.687288  
     381A      5.713505   382A      5.744983   383A      5.764473  
     384A      5.805916   385A      5.819404   386A      5.866496  
     387A      5.893616   388A      5.951782   389A      5.987928  
     390A      6.036634   391A      6.079811   392A      6.140146  
     393A      6.163455   394A      6.187303   395A      6.229073  
     396A      6.245450   397A      6.274217   398A      6.337145  
     399A      6.346506   400A      6.374781   401A      6.412911  
     402A      6.500932   403A      6.561116   404A      6.636454  
     405A      6.753295   406A      6.778506   407A      6.824128  
     408A      6.851184   409A      6.876799   410A      6.980157  
     411A     18.083552   412A     18.218959   413A     18.891886  
     414A     19.929995  

    Final Occupation by Irrep:
              A 
    DOCC [    17 ]

  Energy converged.

  @DF-RHF Final Energy:  -157.34755464072526

   => Energetics <=

    Nuclear Repulsion Energy =            131.8500977988451552
    One-Electron Energy =                -471.8008694034895143
    Two-Electron Energy =                 182.6032169639191238
    DFT Exchange-Correlation Energy =       0.0000000000000000
    Empirical Dispersion Energy =           0.0000000000000000
    PCM Polarization Energy =               0.0000000000000000
    EFP Energy =                            0.0000000000000000
    Total Energy =                       -157.3475546407252637



Properties will be evaluated at   0.000000,   0.000000,   0.000000 Bohr

Properties computed using the SCF density matrix

  Nuclear Dipole Moment: (a.u.)
     X:     0.0019      Y:     0.0015      Z:    -0.0012

  Electronic Dipole Moment: (a.u.)
     X:    -0.0018      Y:    -0.0022      Z:     0.0002

  Dipole Moment: (a.u.)
     X:     0.0002      Y:    -0.0007      Z:    -0.0009     Total:     0.0012

  Dipole Moment: (Debye)
     X:     0.0004      Y:    -0.0017      Z:    -0.0024     Total:     0.0029


*** tstop() called on gpu-1-4.local at Wed Jun 14 14:32:14 2017
Module time:
	user time   =      66.20 seconds =       1.10 minutes
	system time =       0.64 seconds =       0.01 minutes
	total time  =         68 seconds =       1.13 minutes
Total time:
	user time   =      66.21 seconds =       1.10 minutes
	system time =       0.64 seconds =       0.01 minutes
	total time  =         68 seconds =       1.13 minutes

  //>>>>>>>>>>>>>>>>>>>>>>>>>>>>>>>>>>>//
  //               DFMP2               //
  //<<<<<<<<<<<<<<<<<<<<<<<<<<<<<<<<<<<//

   => Loading Basis Set <=

    Name: (AUG-CC-PVTZ AUX)
    Role: RIFIT
    Keyword: DF_BASIS_MP2
    atoms 1-3, 5-6, 8-9, 11-13 entry H          line    29 file /cbio/jclab/home/chayas/anaconda/envs/py35/share/psi4/basis/aug-cc-pvtz-ri.gbs 
    atoms 4, 7, 10, 14         entry C          line   147 file /cbio/jclab/home/chayas/anaconda/envs/py35/share/psi4/basis/aug-cc-pvtz-ri.gbs 

	 --------------------------------------------------------
	                          DF-MP2                         
	      2nd-Order Density-Fitted Moller-Plesset Theory     
	              RMP2 Wavefunction,   1 Threads             
	                                                         
	        Rob Parrish, Justin Turney, Andy Simmonett,      
	           Ed Hohenstein, and C. David Sherrill          
	 --------------------------------------------------------

   => Auxiliary Basis Set <=

  Basis Set: (AUG-CC-PVTZ AUX)
    Blend: AUG-CC-PVTZ-RI
    Number of shells: 252
    Number of basis function: 884
    Number of Cartesian functions: 1094
    Spherical Harmonics?: true
    Max angular momentum: 4

	 --------------------------------------------------------
	                 NBF =   414, NAUX =   884
	 --------------------------------------------------------
	   CLASS    FOCC     OCC    AOCC    AVIR     VIR    FVIR
	   PAIRS       0      17      17     397     397       0
	 --------------------------------------------------------


         ------------------------------------------------------------
                                     CPHF                           
                                  Rob Parrish                       
         ------------------------------------------------------------

  ==> Geometry <==

    Molecular point group: c1
    Full point group: C1

    Geometry (in Angstrom), charge = 0, multiplicity = 1:

       Center              X                  Y                   Z               Mass       
    ------------   -----------------  -----------------  -----------------  -----------------
           H         -2.312793382205     0.057965294236     0.314776029323     1.007825032070
           H         -2.171793382205     1.685965294236    -0.305223970677     1.007825032070
           H         -1.873793382205     0.321965294236    -1.355223970677     1.007825032070
           C         -1.774793382205     0.692965294236    -0.357223970677    12.000000000000
           H          0.252206617795     1.348965294236    -0.635223970677     1.007825032070
           H         -0.185793382205     1.085965294236     1.035776029323     1.007825032070
           C         -0.285793382205     0.713965294236     0.037776029323    12.000000000000
           H         -0.251793382205    -1.349034705764     0.634776029323     1.007825032070
           H          0.187206617795    -1.086034705764    -1.035223970677     1.007825032070
           C          0.286206617795    -0.714034705764    -0.037223970677    12.000000000000
           H          2.375206617795    -0.886034705764    -0.507223970677     1.007825032070
           H          1.959206617795    -1.445034705764     1.094776029323     1.007825032070
           H          2.024206617795     0.266965294236     0.756776029323     1.007825032070
           C          1.774206617795    -0.693034705764     0.356776029323    12.000000000000

  Nuclear repulsion =  131.850097798845155
  Reference energy  = -157.347554640725264

  ==> Basis Set <==

  Basis Set: AUG-CC-PVTZ
    Blend: AUG-CC-PVTZ
    Number of shells: 146
    Number of basis function: 414
    Number of Cartesian functions: 470
    Spherical Harmonics?: true
    Max angular momentum: 3

  ==> CGRSolver (by Rob Parrish) <==

   Number of roots    =         1
   Preconditioning    =    JACOBI
   Convergence cutoff =     1E-06
   Maximum iterations =       100

  ==> CPHFRHamiltonian (by Rob Parrish) <== 

  ==> DFJK: Density-Fitted J/K Matrices <==

    J tasked:                  Yes
    K tasked:                  Yes
    wK tasked:                  No
    OpenMP threads:              1
    Integrals threads:           1
    Memory (MB):               715
    Algorithm:                Core
    Integral Cache:           NONE
    Schwarz Cutoff:          1E-12
    Fitting Condition:       1E-12

   => Auxiliary Basis Set <=

  Basis Set: (AUG-CC-PVTZ AUX)
    Blend: AUG-CC-PVTZ-JKFIT
    Number of shells: 260
    Number of basis function: 876
    Number of Cartesian functions: 1074
    Spherical Harmonics?: true
    Max angular momentum: 4

  ==> CPHF Iterations <==

  => Iterations <=

             Iter  Converged  Remaining    Residual
  CGR           1          0          1   8.174E-02
  CGR           2          0          1   1.314E-02
  CGR           3          0          1   3.419E-03
  CGR           4          0          1   8.055E-04
  CGR           5          0          1   1.187E-04
  CGR           6          0          1   2.167E-05
  CGR           7          0          1   4.210E-06
  CGR           8          0          1   1.146E-06
  CGR           9          1          0   2.934E-07

    CGRSolver converged.

  ==> DFCorrGrad: Density-Fitted Correlated Gradients <==

    OpenMP threads:              1
    Integrals threads:           1
    Memory (MB):               715
    Schwarz Cutoff:          0E+00
    Fitting Condition:       1E-12

   => Auxiliary Basis Set <=

  Basis Set: (AUG-CC-PVTZ AUX)
    Blend: AUG-CC-PVTZ-JKFIT
    Number of shells: 260
    Number of basis function: 876
    Number of Cartesian functions: 1074
    Spherical Harmonics?: true
    Max angular momentum: 4

	-----------------------------------------------------------
	 ==================> DF-MP2 Energies <==================== 
	-----------------------------------------------------------
	 Reference Energy          =    -157.3475546407252637 [Eh]
	 Singles Energy            =      -0.0000000000000000 [Eh]
	 Same-Spin Energy          =      -0.1654797054444255 [Eh]
	 Opposite-Spin Energy      =      -0.6394452580325499 [Eh]
	 Correlation Energy        =      -0.8049249634769754 [Eh]
	 Total Energy              =    -158.1524796042022274 [Eh]
	-----------------------------------------------------------
	 ================> DF-SCS-MP2 Energies <================== 
	-----------------------------------------------------------
	 SCS Same-Spin Scale       =       0.3333333333333333 [-]
	 SCS Opposite-Spin Scale   =       1.2000000000000000 [-]
	 SCS Same-Spin Energy      =      -0.0551599018148085 [Eh]
	 SCS Opposite-Spin Energy  =      -0.7673343096390599 [Eh]
	 SCS Correlation Energy    =      -0.8224942114538684 [Eh]
	 SCS Total Energy          =    -158.1700488521791215 [Eh]
	-----------------------------------------------------------


  -Total Gradient:
     Atom            X                  Y                   Z
    ------   -----------------  -----------------  -----------------
       1        0.007811773679     0.006824552555    -0.006381391390
       2        0.008222181295    -0.009438506991     0.000614174319
       3        0.003284456320     0.004194392980     0.011240590184
       4       -0.025209941947    -0.007417720243    -0.007891015264
       5       -0.008101951415    -0.008153662723     0.006069687149
       6       -0.003410338432    -0.005134176982    -0.011456237608
       7        0.024327367284     0.031120700827     0.012529362480
       8        0.009216693553     0.007267347302    -0.005440675181
       9        0.005035131636     0.005549620657     0.010638466730
      10       -0.016435515462    -0.030075528535    -0.009723353367
      11       -0.010331453959     0.000983414193     0.006339142601
      12       -0.007319292796     0.007148701466    -0.007494053990
      13       -0.005896150708    -0.009122597816    -0.005326947436
      14        0.018807040952     0.006253463309     0.006282250775


*** tstop() called on gpu-1-4.local at Wed Jun 14 14:36:08 2017
Module time:
	user time   =     297.77 seconds =       4.96 minutes
	system time =       3.06 seconds =       0.05 minutes
	total time  =        302 seconds =       5.03 minutes
Total time:
	user time   =     297.78 seconds =       4.96 minutes
	system time =       3.06 seconds =       0.05 minutes
	total time  =        302 seconds =       5.03 minutes

			-----------------------------------------
			 OPTKING 2.0: for geometry optimizations 
			  - R.A. King,  Bethel University        
			-----------------------------------------

	Internal coordinates to be generated automatically.
	Detected frag 1 with atoms:  1 2 3 4 5 6 7 8 9 10 11 12 13 14
	---Fragment 1 Bond Connectivity---
	 1 : 4
	 2 : 4
	 3 : 4
	 4 : 1 2 3 7
	 5 : 7
	 6 : 7
	 7 : 4 5 6 10
	 8 : 10
	 9 : 10
	 10 : 7 8 9 14
	 11 : 14
	 12 : 14
	 13 : 14
	 14 : 10 11 12 13

	Assuming in current code that numbering for constraints corresponds to unified fragment.
	Fixed dihedral atom list: 
	     7    10    14    13
	---Fragment 1 Geometry and Gradient---
	 H          -4.3705460943        0.1095385313        0.5948404886
	 H          -4.1040947096        3.1860126757       -0.5767897138
	 H          -3.5409563220        0.6084262304       -2.5610021533
	 C          -3.3538734348        1.3095146257       -0.6750554727
	 H           0.4766014365        2.5491749689       -1.2003993376
	 H          -0.3510986097        2.0521769959        1.9573330304
	 C          -0.5400712230        1.3491988745        0.0713863498
	 H          -0.4758205344       -2.5493061377        1.1995528511
	 H           0.3537692379       -2.0523081647       -1.9562897908
	 C           0.5408521251       -1.3493300433       -0.0703431102
	 H           4.4884900166       -1.6743629381       -0.9585143926
	 H           3.7023639454       -2.7307198464        2.0688268723
	 H           3.8251961440        0.5044912931        1.4300994394
	 C           3.3527646108       -1.3096457945        0.6742089862
	             0.0078117737        0.0068245526       -0.0063813914
	             0.0082221813       -0.0094385070        0.0006141743
	             0.0032844563        0.0041943930        0.0112405902
	            -0.0252099419       -0.0074177202       -0.0078910153
	            -0.0081019514       -0.0081536627        0.0060696871
	            -0.0034103384       -0.0051341770       -0.0114562376
	             0.0243273673        0.0311207008        0.0125293625
	             0.0092166936        0.0072673473       -0.0054406752
	             0.0050351316        0.0055496207        0.0106384667
	            -0.0164355155       -0.0300755285       -0.0097233534
	            -0.0103314540        0.0009834142        0.0063391426
	            -0.0073192928        0.0071487015       -0.0074940540
	            -0.0058961507       -0.0091225978       -0.0053269474
	             0.0188070410        0.0062534633        0.0062822508

	Previous optimization step data not found.  Starting new optimization.

	---Fragment 1 Intrafragment Coordinates---
	 - Coordinate -           - BOHR/RAD -       - ANG/DEG -
	 R(1,4)           =         2.021436	       1.069698
	 R(2,4)           =         2.023298	       1.070683
	 R(3,4)           =         2.020723	       1.069320
	 R(4,7)           =         2.911397	       1.540645
	 R(5,7)           =         2.022623	       1.070326
	 R(6,7)           =         2.021555	       1.069761
	 R(7,10)          =         2.910419	       1.540128
	 R(8,10)          =         2.021436	       1.069698
	 R(9,10)          =         2.021379	       1.069668
	 R(10,14)         =         2.909087	       1.539422
	 R(11,14)         =         2.022048	       1.070021
	 R(12,14)         =         2.021542	       1.069754
	 R(13,14)         =         2.021300	       1.069626
	 B(1,4,2)         =         1.910870	     109.484805
	 B(1,4,3)         =         1.911121	     109.499161
	 B(1,4,7)         =         1.910399	     109.457783
	 B(2,4,3)         =         1.910042	     109.437340
	 B(2,4,7)         =         1.910564	     109.467262
	 B(3,4,7)         =         1.910803	     109.480971
	 B(4,7,5)         =         1.909937	     109.431343
	 B(4,7,6)         =         1.911630	     109.528316
	 B(4,7,10)        =         1.911154	     109.501062
	 B(5,7,6)         =         1.910605	     109.469614
	 B(5,7,10)        =         1.910047	     109.437654
	 B(6,7,10)        =         1.910425	     109.459295
	 B(7,10,8)        =         1.910303	     109.452301
	 B(7,10,9)        =         1.910824	     109.482155
	 B(7,10,14)       =         1.911213	     109.504437
	 B(8,10,9)        =         1.910417	     109.458846
	 B(8,10,14)       =         1.910766	     109.478806
	 B(9,10,14)       =         1.910276	     109.450772
	 B(10,14,11)      =         1.911115	     109.498795
	 B(10,14,12)      =         1.911487	     109.520152
	 B(10,14,13)      =         1.911207	     109.504117
	 B(11,14,12)      =         1.910409	     109.458365
	 B(11,14,13)      =         1.909820	     109.424627
	 B(12,14,13)      =         1.909760	     109.421189
	 D(1,4,7,5)       =         3.140997	     179.965873
	 D(1,4,7,6)       =        -1.047644	     -60.025575
	 D(1,4,7,10)      =         1.047427	      60.013132
	 D(2,4,7,5)       =        -1.047689	     -60.028143
	 D(2,4,7,6)       =         1.046856	      59.980409
	 D(2,4,7,10)      =        -3.141259	    -179.980883
	 D(3,4,7,5)       =         1.046044	      59.933911
	 D(3,4,7,6)       =         3.140588	     179.942463
	 D(3,4,7,10)      =        -1.047526	     -60.018830
	 D(4,7,10,8)      =        -1.047368	     -60.009777
	 D(4,7,10,9)      =         1.046677	      59.970178
	 D(4,7,10,14)     =         3.141107	     179.972182
	 D(5,7,10,8)      =        -3.140871	    -179.958653
	 D(5,7,10,9)      =        -1.046826	     -59.978698
	 D(5,7,10,14)     =         1.047604	      60.023306
	 D(6,7,10,8)      =         1.048439	      60.071149
	 D(6,7,10,9)      =        -3.140701	    -179.948896
	 D(6,7,10,14)     =        -1.046271	     -59.946893
	 D(7,10,14,11)    =        -1.919640	    -109.987267
	 D(7,10,14,12)    =         2.268606	     129.981571
	 D(7,10,14,13)    =         0.174406	       9.992709
	 D(8,10,14,11)    =         2.269118	     130.010911
	 D(8,10,14,12)    =         0.174179	       9.979749
	 D(8,10,14,13)    =        -1.920021	    -110.009113
	 D(9,10,14,11)    =         0.175125	      10.033940
	 D(9,10,14,12)    =        -1.919814	    -109.997221
	 D(9,10,14,13)    =         2.269171	     130.013916

	Current energy   :      -158.1524796042

	Generating empirical Hessian (Schlegel '84) for each fragment.
	Adding user-defined constraint: Fragment 1; Coordinate 58:
		Value =     0.174406; Fixed value    =     0.174533
		Force =     0.000064; Force constant =     0.500000
	Removing off-diagonal coupling between coordinate 58 and others.
	Taking RFO optimization step.
	Going to follow RFO solution 1.
	Using RFO vector 1.

	Determining step-restricting scale parameter for RS-RFO.
	Maximum step size allowed    0.10000

	 Iter      |step|        alpha        rfo_root  
	------------------------------------------------
	    0     0.20827       1.00000           1
	    1     0.15783       6.86773           1
	    2     0.12381      19.13210           1
	    3     0.10616      32.84722           1
	    4     0.10058      39.19141           1
	    5     0.10001      39.92099           1
	------------------------------------------------
	Norm of target step-size    0.10001
	Projected energy change by RFO approximation:        -0.0045982100

	Back-transformation to cartesian coordinates...
	Could not converge backtransformation.
	Using first guess instead.

	--- Internal Coordinate Step in ANG or DEG, aJ/ANG or AJ/DEG ---
	 ---------------------------------------------------------------------------
	   Coordinate                Previous        Force       Change         New 
	   ----------                --------       ------       ------       ------
	    1 R(1,4)          =      1.069698     0.098774     0.011591     1.081289
	    2 R(2,4)          =      1.070683     0.096991     0.011397     1.082080
	    3 R(3,4)          =      1.069320     0.100926     0.011831     1.081152
	    4 R(4,7)          =      1.540645    -0.052674    -0.007273     1.533372
	    5 R(5,7)          =      1.070326     0.104849     0.012278     1.082604
	    6 R(6,7)          =      1.069761     0.105389     0.012324     1.082085
	    7 R(7,10)         =      1.540128    -0.072344    -0.009873     1.530255
	    8 R(8,10)         =      1.069698     0.101892     0.011930     1.081627
	    9 R(9,10)         =      1.069668     0.101515     0.011885     1.081552
	   10 R(10,14)        =      1.539422     0.037575     0.005318     1.544741
	   11 R(11,14)        =      1.070021     0.091440     0.010762     1.080784
	   12 R(12,14)        =      1.069754     0.094424     0.011115     1.080868
	   13 R(13,14)        =      1.069626     0.095221     0.011328     1.080954
	   14 B(1,4,2)        =    109.484805    -0.000247    -0.532632   108.952172
	   15 B(1,4,3)        =    109.499161    -0.000170    -0.417576   109.081585
	   16 B(1,4,7)        =    109.457783     0.000120     0.251827   109.709610
	   17 B(2,4,3)        =    109.437340    -0.000244    -0.523824   108.913516
	   18 B(2,4,7)        =    109.467262     0.000416     0.947401   110.414663
	   19 B(3,4,7)        =    109.480971     0.000124     0.261671   109.742642
	   20 B(4,7,5)        =    109.431343    -0.000127    -0.146242   109.285100
	   21 B(4,7,6)        =    109.528316    -0.000123    -0.140359   109.387957
	   22 B(4,7,10)       =    109.501062     0.000700     1.406983   110.908045
	   23 B(5,7,6)        =    109.469614     0.000024    -0.171903   109.297710
	   24 B(5,7,10)       =    109.437654    -0.000227    -0.450775   108.986879
	   25 B(6,7,10)       =    109.459295    -0.000247    -0.507128   108.952167
	   26 B(7,10,8)       =    109.452301    -0.000292    -0.634975   108.817325
	   27 B(7,10,9)       =    109.482155    -0.000307    -0.653919   108.828236
	   28 B(7,10,14)      =    109.504437     0.000768     1.549887   111.054323
	   29 B(8,10,9)       =    109.458846    -0.000002    -0.279381   109.179465
	   30 B(8,10,14)      =    109.478806    -0.000080     0.015471   109.494277
	   31 B(9,10,14)      =    109.450772    -0.000088    -0.013090   109.437682
	   32 B(10,14,11)     =    109.498795     0.000392     0.860029   110.358825
	   33 B(10,14,12)     =    109.520152     0.000459     1.039689   110.559842
	   34 B(10,14,13)     =    109.504117     0.000211     0.452559   109.956677
	   35 B(11,14,12)     =    109.458365    -0.000401    -0.872695   108.585670
	   36 B(11,14,13)     =    109.424627    -0.000330    -0.783389   108.641238
	   37 B(12,14,13)     =    109.421189    -0.000333    -0.733434   108.687755
	   38 D(1,4,7,5)      =    179.965873     0.000008     0.105238   180.071111
	   39 D(1,4,7,6)      =    -60.025575    -0.000020    -0.279114   -60.304689
	   40 D(1,4,7,10)     =     60.013132    -0.000008    -0.118236    59.894896
	   41 D(2,4,7,5)      =    -60.028143     0.000014     0.194795   -59.833348
	   42 D(2,4,7,6)      =     59.980409    -0.000014    -0.189556    59.790853
	   43 D(2,4,7,10)     =   -179.980883    -0.000002    -0.028679  -180.009562
	   44 D(3,4,7,5)      =     59.933911     0.000022     0.301453    60.235363
	   45 D(3,4,7,6)      =    179.942463    -0.000007    -0.082899   179.859564
	   46 D(3,4,7,10)     =    -60.018830     0.000005     0.077979   -59.940851
	   47 D(4,7,10,8)     =    -60.009777     0.000042     0.546614   -59.463163
	   48 D(4,7,10,9)     =     59.970178    -0.000042    -0.558734    59.411444
	   49 D(4,7,10,14)    =    179.972182    -0.000002    -0.029581   179.942601
	   50 D(5,7,10,8)     =   -179.958653     0.000012     0.141944  -179.816709
	   51 D(5,7,10,9)     =    -59.978698    -0.000073    -0.963404   -60.942102
	   52 D(5,7,10,14)    =     60.023306    -0.000033    -0.434251    59.589055
	   53 D(6,7,10,8)     =     60.071149     0.000072     0.924239    60.995388
	   54 D(6,7,10,9)     =   -179.948896    -0.000013    -0.181109  -180.130006
	   55 D(6,7,10,14)    =    -59.946893     0.000027     0.348044   -59.598849
	   56 D(7,10,14,11)   =   -109.987267     0.000013     0.204297  -109.782970
	   57 D(7,10,14,12)   =    129.981571     0.000006     0.085315   130.066886
	   58 D(7,10,14,13)   =      9.992709     0.000006     0.056685    10.049394
	   59 D(8,10,14,11)   =    130.010911    -0.000001     0.012796   130.023707
	   60 D(8,10,14,12)   =      9.979749    -0.000009    -0.106186     9.873564
	   61 D(8,10,14,13)   =   -110.009113    -0.000009    -0.134816  -110.143929
	   62 D(9,10,14,11)   =     10.033940     0.000023     0.353154    10.387094
	   63 D(9,10,14,12)   =   -109.997221     0.000015     0.234172  -109.763049
	   64 D(9,10,14,13)   =    130.013916     0.000015     0.205542   130.219458
	 ---------------------------------------------------------------------------
	Successfully symmetrized geometry.
	 Forces used to impose fixed constraints are not included.
	  Forces zeroed: 58 

  ==> Convergence Check <==

  Measures of convergence in internal coordinates in au.
  Criteria marked as inactive (o), active & met (*), and active & unmet ( ).
  --------------------------------------------------------------------------------------------- ~
   Step     Total Energy     Delta E     MAX Force     RMS Force      MAX Disp      RMS Disp    ~
  --------------------------------------------------------------------------------------------- ~
    Convergence Criteria    1.00e-06 *    3.00e-04 *             o    1.20e-03 *             o  ~
  --------------------------------------------------------------------------------------------- ~
      1    -158.15247960   -1.58e+02      1.28e-02      5.72e-03 o    2.71e-02      1.25e-02 o  ~
  ---------------------------------------------------------------------------------------------

	Writing optimization data to binary file.
	Structure for next step:
	Cartesian Geometry (in Angstrom)
	    H    -2.3334848973   0.0598348904   0.3168093755
	    H    -2.1899052624   1.6995790858  -0.3082627710
	    H    -1.8907634264   0.3257257518  -1.3671516848
	    C    -1.7812630313   0.6988804274  -0.3583631383
	    H     0.2471854243   1.3487868001  -0.6461019148
	    H    -0.1955367175   1.0829295063   1.0422533119
	    C    -0.2987149492   0.7063365263   0.0330752563
	    H    -0.2585152076  -1.3443711347   0.6432662906
	    H     0.1846089843  -1.0795093032  -1.0425009760
	    C     0.2908390371  -0.7042105088  -0.0337286125
	    H     2.4015755756  -0.8953880111  -0.5072407225
	    H     1.9841967255  -1.4597357883   1.1015877801
	    H     2.0567631647   0.2630368201   0.7665612634
	    C     1.7849072294  -0.7003809428   0.3586609526
			--------------------------
			 OPTKING Finished Execution 
			--------------------------

    Structure for next step:
    Molecular point group: c1
    Full point group: C1

    Geometry (in Angstrom), charge = 0, multiplicity = 1:

    H           -2.332716825266     0.059690230492     0.316896372902
    H           -2.189137190321     1.699434425902    -0.308175773641
    H           -1.889995354327     0.325581091919    -1.367064687465
    C           -1.780494959212     0.698735767451    -0.358276140925
    H            0.247953496413     1.348642140198    -0.646014917382
    H           -0.194768645417     1.082784846344     1.042340309311
    C           -0.297946877155     0.706191866416     0.033162253634
    H           -0.257747135550    -1.344515794644     0.643353287963
    H            0.185377056406    -1.079653963118    -1.042413978603
    C            0.291607109136    -0.704355168759    -0.033641615133
    H            2.402343647675    -0.895532671027    -0.507153725163
    H            1.984964797591    -1.459880448251     1.101674777458
    H            2.057531236760     0.262892160205     0.766648260813
    C            1.785675301465    -0.700525602758     0.358747949935

gradient() will perform analytic gradient computation.

*** tstart() called on gpu-1-4.local
*** at Wed Jun 14 14:36:09 2017

    SCF Algorithm Type (re)set to DF.

*** tstart() called on gpu-1-4.local
*** at Wed Jun 14 14:36:09 2017

   => Loading Basis Set <=

    Name: AUG-CC-PVTZ
    Role: ORBITAL
    Keyword: BASIS
    atoms 1-3, 5-6, 8-9, 11-13 entry H          line    34 file /cbio/jclab/home/chayas/anaconda/envs/py35/share/psi4/basis/aug-cc-pvtz.gbs 
    atoms 4, 7, 10, 14         entry C          line   221 file /cbio/jclab/home/chayas/anaconda/envs/py35/share/psi4/basis/aug-cc-pvtz.gbs 


         ---------------------------------------------------------
                                   SCF
            by Justin Turney, Rob Parrish, and Andy Simmonett
                              RHF Reference
                        1 Threads,    953 MiB Core
         ---------------------------------------------------------

  ==> Geometry <==

    Molecular point group: c1
    Full point group: C1

    Geometry (in Angstrom), charge = 0, multiplicity = 1:

       Center              X                  Y                   Z               Mass       
    ------------   -----------------  -----------------  -----------------  -----------------
           H         -2.332716825266     0.059690230492     0.316896372902     1.007825032070
           H         -2.189137190321     1.699434425902    -0.308175773641     1.007825032070
           H         -1.889995354327     0.325581091919    -1.367064687465     1.007825032070
           C         -1.780494959212     0.698735767451    -0.358276140925    12.000000000000
           H          0.247953496413     1.348642140198    -0.646014917382     1.007825032070
           H         -0.194768645417     1.082784846344     1.042340309311     1.007825032070
           C         -0.297946877155     0.706191866416     0.033162253634    12.000000000000
           H         -0.257747135550    -1.344515794644     0.643353287963     1.007825032070
           H          0.185377056406    -1.079653963118    -1.042413978603     1.007825032070
           C          0.291607109136    -0.704355168759    -0.033641615133    12.000000000000
           H          2.402343647675    -0.895532671027    -0.507153725163     1.007825032070
           H          1.984964797591    -1.459880448251     1.101674777458     1.007825032070
           H          2.057531236760     0.262892160205     0.766648260813     1.007825032070
           C          1.785675301465    -0.700525602758     0.358747949935    12.000000000000

  Running in c1 symmetry.

  Rotational constants: A =      0.77698  B =      0.12291  C =      0.11519 [cm^-1]
  Rotational constants: A =  23293.20665  B =   3684.70960  C =   3453.30923 [MHz]
  Nuclear repulsion =  131.263897154121338

  Charge       = 0
  Multiplicity = 1
  Electrons    = 34
  Nalpha       = 17
  Nbeta        = 17

  ==> Algorithm <==

  SCF Algorithm Type is DF.
  DIIS enabled.
  MOM disabled.
  Fractional occupation disabled.
  Guess Type is READ.
  Energy threshold   = 1.00e-10
  Density threshold  = 1.00e-10
  Integral threshold = 0.00e+00

  ==> Primary Basis <==

  Basis Set: AUG-CC-PVTZ
    Blend: AUG-CC-PVTZ
    Number of shells: 146
    Number of basis function: 414
    Number of Cartesian functions: 470
    Spherical Harmonics?: true
    Max angular momentum: 3

   => Loading Basis Set <=

    Name: (AUG-CC-PVTZ AUX)
    Role: JKFIT
    Keyword: DF_BASIS_SCF
    atoms 1-3, 5-6, 8-9, 11-13 entry H          line    69 file /cbio/jclab/home/chayas/anaconda/envs/py35/share/psi4/basis/aug-cc-pvtz-jkfit.gbs 
    atoms 4, 7, 10, 14         entry C          line   161 file /cbio/jclab/home/chayas/anaconda/envs/py35/share/psi4/basis/aug-cc-pvtz-jkfit.gbs 

  Reading orbitals from file 180, no projection.

  ==> Pre-Iterations <==

   -------------------------------------------------------
    Irrep   Nso     Nmo     Nalpha   Nbeta   Ndocc  Nsocc
   -------------------------------------------------------
     A        414     414       0       0       0       0
   -------------------------------------------------------
    Total     414     414      17      17      17       0
   -------------------------------------------------------

  ==> Integral Setup <==

  ==> DFJK: Density-Fitted J/K Matrices <==

    J tasked:                  Yes
    K tasked:                  Yes
    wK tasked:                  No
    OpenMP threads:              1
    Integrals threads:           1
    Memory (MB):               715
    Algorithm:                Core
    Integral Cache:           NONE
    Schwarz Cutoff:          1E-12
    Fitting Condition:       1E-12

   => Auxiliary Basis Set <=

  Basis Set: (AUG-CC-PVTZ AUX)
    Blend: AUG-CC-PVTZ-JKFIT
    Number of shells: 260
    Number of basis function: 876
    Number of Cartesian functions: 1074
    Spherical Harmonics?: true
    Max angular momentum: 4

  Minimum eigenvalue in the overlap matrix is 8.9514713412E-06.
  Using Symmetric Orthogonalization.

  SCF Guess: Orbitals guess was supplied from a previous computation.

  ==> Iterations <==

                           Total Energy        Delta E     RMS |[F,P]|

   @DF-RHF iter   0:  -157.27543175316575   -1.57275e+02   1.22423e-04 
   @DF-RHF iter   1:  -157.35017752877093   -7.47458e-02   4.85525e-05 
   @DF-RHF iter   2:  -157.35041719351710   -2.39665e-04   2.50601e-05 DIIS
   @DF-RHF iter   3:  -157.35046826512234   -5.10716e-05   2.74440e-06 DIIS
   @DF-RHF iter   4:  -157.35046962012993   -1.35501e-06   7.42107e-07 DIIS
   @DF-RHF iter   5:  -157.35046970395470   -8.38248e-08   2.49568e-07 DIIS
   @DF-RHF iter   6:  -157.35046971371966   -9.76496e-09   4.36785e-08 DIIS
   @DF-RHF iter   7:  -157.35046971414025   -4.20584e-10   6.97015e-09 DIIS
   @DF-RHF iter   8:  -157.35046971415062   -1.03739e-11   1.51572e-09 DIIS
   @DF-RHF iter   9:  -157.35046971415358   -2.95586e-12   3.54225e-10 DIIS
   @DF-RHF iter  10:  -157.35046971415287    7.10543e-13   8.28035e-11 DIIS

  ==> Post-Iterations <==

    Orbital Energies (a.u.)
    -----------------------

    Doubly Occupied:                                                      

       1A    -11.210491     2A    -11.209423     3A    -11.203355  
       4A    -11.202694     5A     -1.069968     6A     -0.978525  
       7A     -0.860678     8A     -0.790147     9A     -0.643588  
      10A     -0.583837    11A     -0.573548    12A     -0.572513  
      13A     -0.510128    14A     -0.502080    15A     -0.467066  
      16A     -0.465268    17A     -0.447934  

    Virtual:                                                              

      18A      0.032353    19A      0.037595    20A      0.039639  
      21A      0.040171    22A      0.058179    23A      0.059334  
      24A      0.060454    25A      0.061293    26A      0.076174  
      27A      0.083214    28A      0.103308    29A      0.112759  
      30A      0.122374    31A      0.130620    32A      0.139519  
      33A      0.141655    34A      0.142430    35A      0.144303  
      36A      0.148403    37A      0.161294    38A      0.165979  
      39A      0.168075    40A      0.173665    41A      0.196554  
      42A      0.201222    43A      0.218238    44A      0.223589  
      45A      0.240079    46A      0.249810    47A      0.254090  
      48A      0.264573    49A      0.279420    50A      0.281701  
      51A      0.289549    52A      0.310381    53A      0.318811  
      54A      0.335020    55A      0.340377    56A      0.345397  
      57A      0.356803    58A      0.357751    59A      0.359148  
      60A      0.364096    61A      0.369533    62A      0.369693  
      63A      0.383530    64A      0.388177    65A      0.388652  
      66A      0.391583    67A      0.394815    68A      0.396309  
      69A      0.405040    70A      0.408783    71A      0.414468  
      72A      0.431254    73A      0.439720    74A      0.440759  
      75A      0.446996    76A      0.460985    77A      0.461562  
      78A      0.464747    79A      0.466682    80A      0.486107  
      81A      0.489759    82A      0.498894    83A      0.507890  
      84A      0.508992    85A      0.517652    86A      0.519896  
      87A      0.524632    88A      0.530462    89A      0.539013  
      90A      0.544071    91A      0.547132    92A      0.555846  
      93A      0.559943    94A      0.577046    95A      0.584394  
      96A      0.588299    97A      0.591000    98A      0.614471  
      99A      0.617786   100A      0.634123   101A      0.639060  
     102A      0.650683   103A      0.675319   104A      0.678994  
     105A      0.698388   106A      0.717483   107A      0.750581  
     108A      0.773135   109A      0.791652   110A      0.814506  
     111A      0.823757   112A      0.828400   113A      0.831602  
     114A      0.839151   115A      0.844306   116A      0.855807  
     117A      0.866138   118A      0.876446   119A      0.882031  
     120A      0.889389   121A      0.893646   122A      0.900162  
     123A      0.917452   124A      0.918612   125A      0.919662  
     126A      0.924126   127A      0.929040   128A      0.940001  
     129A      0.947442   130A      0.953149   131A      0.964069  
     132A      0.975145   133A      0.980836   134A      0.988184  
     135A      0.991628   136A      1.016130   137A      1.026597  
     138A      1.036514   139A      1.044724   140A      1.057225  
     141A      1.072157   142A      1.078516   143A      1.081827  
     144A      1.088372   145A      1.101049   146A      1.103841  
     147A      1.119433   148A      1.139167   149A      1.149856  
     150A      1.155660   151A      1.157790   152A      1.166010  
     153A      1.181378   154A      1.190602   155A      1.214283  
     156A      1.226313   157A      1.232424   158A      1.242363  
     159A      1.249557   160A      1.253573   161A      1.257184  
     162A      1.266520   163A      1.274443   164A      1.288965  
     165A      1.294518   166A      1.302443   167A      1.311818  
     168A      1.312613   169A      1.335776   170A      1.351151  
     171A      1.362867   172A      1.389196   173A      1.402378  
     174A      1.416462   175A      1.430972   176A      1.444130  
     177A      1.459932   178A      1.476781   179A      1.485520  
     180A      1.492160   181A      1.512454   182A      1.529780  
     183A      1.537374   184A      1.546982   185A      1.569408  
     186A      1.592917   187A      1.599441   188A      1.608712  
     189A      1.616115   190A      1.637671   191A      1.645354  
     192A      1.669545   193A      1.676647   194A      1.689006  
     195A      1.700456   196A      1.701425   197A      1.706756  
     198A      1.716562   199A      1.722938   200A      1.726796  
     201A      1.734030   202A      1.751633   203A      1.752923  
     204A      1.763056   205A      1.766419   206A      1.768843  
     207A      1.785409   208A      1.806908   209A      1.823857  
     210A      1.833212   211A      1.855881   212A      1.875591  
     213A      1.903013   214A      1.911867   215A      1.929800  
     216A      1.954911   217A      1.964590   218A      1.967916  
     219A      1.978104   220A      2.002173   221A      2.005713  
     222A      2.013644   223A      2.027800   224A      2.035282  
     225A      2.049140   226A      2.061288   227A      2.067973  
     228A      2.083913   229A      2.095707   230A      2.140821  
     231A      2.160980   232A      2.184439   233A      2.192795  
     234A      2.213832   235A      2.232090   236A      2.255423  
     237A      2.266185   238A      2.274232   239A      2.288648  
     240A      2.302009   241A      2.313079   242A      2.335231  
     243A      2.357333   244A      2.366132   245A      2.373459  
     246A      2.406053   247A      2.415715   248A      2.438732  
     249A      2.462132   250A      2.481549   251A      2.505493  
     252A      2.540469   253A      2.582895   254A      2.611792  
     255A      2.622875   256A      2.669421   257A      2.792833  
     258A      2.873048   259A      2.964729   260A      3.045452  
     261A      3.180382   262A      3.248295   263A      3.282492  
     264A      3.366888   265A      3.395201   266A      3.421528  
     267A      3.443705   268A      3.455035   269A      3.469020  
     270A      3.483749   271A      3.518136   272A      3.559354  
     273A      3.572652   274A      3.587495   275A      3.589697  
     276A      3.602120   277A      3.624841   278A      3.663017  
     279A      3.671902   280A      3.683059   281A      3.693563  
     282A      3.707198   283A      3.714560   284A      3.735003  
     285A      3.749362   286A      3.783879   287A      3.791562  
     288A      3.799643   289A      3.826007   290A      3.836576  
     291A      3.846660   292A      3.860760   293A      3.879575  
     294A      3.887462   295A      3.906759   296A      3.912796  
     297A      3.955089   298A      3.974605   299A      3.980502  
     300A      3.992418   301A      3.998912   302A      4.004170  
     303A      4.015876   304A      4.029460   305A      4.053469  
     306A      4.062640   307A      4.070224   308A      4.091378  
     309A      4.161369   310A      4.173009   311A      4.190874  
     312A      4.201289   313A      4.227667   314A      4.233936  
     315A      4.238771   316A      4.260461   317A      4.267212  
     318A      4.282091   319A      4.302483   320A      4.314841  
     321A      4.354188   322A      4.356712   323A      4.374266  
     324A      4.422351   325A      4.443572   326A      4.463246  
     327A      4.510979   328A      4.521442   329A      4.547964  
     330A      4.557025   331A      4.594775   332A      4.628790  
     333A      4.645542   334A      4.663718   335A      4.691401  
     336A      4.701335   337A      4.727678   338A      4.735986  
     339A      4.755170   340A      4.799866   341A      4.805325  
     342A      4.857863   343A      4.859823   344A      4.867354  
     345A      4.880891   346A      4.913627   347A      4.936881  
     348A      4.956784   349A      4.968889   350A      4.990380  
     351A      5.015668   352A      5.032074   353A      5.044121  
     354A      5.092916   355A      5.124499   356A      5.126095  
     357A      5.163915   358A      5.196828   359A      5.198543  
     360A      5.230997   361A      5.245102   362A      5.256440  
     363A      5.274070   364A      5.311775   365A      5.329548  
     366A      5.335458   367A      5.354377   368A      5.383045  
     369A      5.416274   370A      5.429918   371A      5.446432  
     372A      5.460772   373A      5.493082   374A      5.498667  
     375A      5.538993   376A      5.555559   377A      5.571690  
     378A      5.612661   379A      5.617727   380A      5.660332  
     381A      5.684801   382A      5.721074   383A      5.749841  
     384A      5.775593   385A      5.787786   386A      5.826221  
     387A      5.856298   388A      5.919744   389A      5.953680  
     390A      6.011177   391A      6.037111   392A      6.096990  
     393A      6.137964   394A      6.150551   395A      6.192268  
     396A      6.200789   397A      6.236259   398A      6.299789  
     399A      6.305527   400A      6.339349   401A      6.375166  
     402A      6.469648   403A      6.557332   404A      6.607915  
     405A      6.742204   406A      6.774532   407A      6.820685  
     408A      6.845965   409A      6.870191   410A      6.982624  
     411A     17.897906   412A     18.119214   413A     18.788910  
     414A     19.674720  

    Final Occupation by Irrep:
              A 
    DOCC [    17 ]

  Energy converged.

  @DF-RHF Final Energy:  -157.35046971415287

   => Energetics <=

    Nuclear Repulsion Energy =            131.2638971541213380
    One-Electron Energy =                -470.6462453250169915
    Two-Electron Energy =                 182.0318784567427599
    DFT Exchange-Correlation Energy =       0.0000000000000000
    Empirical Dispersion Energy =           0.0000000000000000
    PCM Polarization Energy =               0.0000000000000000
    EFP Energy =                            0.0000000000000000
    Total Energy =                       -157.3504697141528652



Properties will be evaluated at   0.000000,   0.000000,   0.000000 Bohr

Properties computed using the SCF density matrix

  Nuclear Dipole Moment: (a.u.)
     X:     0.0129      Y:    -0.0005      Z:     0.0001

  Electronic Dipole Moment: (a.u.)
     X:    -0.0130      Y:     0.0013      Z:    -0.0009

  Dipole Moment: (a.u.)
     X:    -0.0001      Y:     0.0008      Z:    -0.0008     Total:     0.0011

  Dipole Moment: (Debye)
     X:    -0.0002      Y:     0.0020      Z:    -0.0020     Total:     0.0028


*** tstop() called on gpu-1-4.local at Wed Jun 14 14:37:04 2017
Module time:
	user time   =      55.45 seconds =       0.92 minutes
	system time =       0.34 seconds =       0.01 minutes
	total time  =         55 seconds =       0.92 minutes
Total time:
	user time   =     353.28 seconds =       5.89 minutes
	system time =       3.48 seconds =       0.06 minutes
	total time  =        358 seconds =       5.97 minutes

  //>>>>>>>>>>>>>>>>>>>>>>>>>>>>>>>>>>>//
  //               DFMP2               //
  //<<<<<<<<<<<<<<<<<<<<<<<<<<<<<<<<<<<//

   => Loading Basis Set <=

    Name: (AUG-CC-PVTZ AUX)
    Role: RIFIT
    Keyword: DF_BASIS_MP2
    atoms 1-3, 5-6, 8-9, 11-13 entry H          line    29 file /cbio/jclab/home/chayas/anaconda/envs/py35/share/psi4/basis/aug-cc-pvtz-ri.gbs 
    atoms 4, 7, 10, 14         entry C          line   147 file /cbio/jclab/home/chayas/anaconda/envs/py35/share/psi4/basis/aug-cc-pvtz-ri.gbs 

	 --------------------------------------------------------
	                          DF-MP2                         
	      2nd-Order Density-Fitted Moller-Plesset Theory     
	              RMP2 Wavefunction,   1 Threads             
	                                                         
	        Rob Parrish, Justin Turney, Andy Simmonett,      
	           Ed Hohenstein, and C. David Sherrill          
	 --------------------------------------------------------

   => Auxiliary Basis Set <=

  Basis Set: (AUG-CC-PVTZ AUX)
    Blend: AUG-CC-PVTZ-RI
    Number of shells: 252
    Number of basis function: 884
    Number of Cartesian functions: 1094
    Spherical Harmonics?: true
    Max angular momentum: 4

	 --------------------------------------------------------
	                 NBF =   414, NAUX =   884
	 --------------------------------------------------------
	   CLASS    FOCC     OCC    AOCC    AVIR     VIR    FVIR
	   PAIRS       0      17      17     397     397       0
	 --------------------------------------------------------


         ------------------------------------------------------------
                                     CPHF                           
                                  Rob Parrish                       
         ------------------------------------------------------------

  ==> Geometry <==

    Molecular point group: c1
    Full point group: C1

    Geometry (in Angstrom), charge = 0, multiplicity = 1:

       Center              X                  Y                   Z               Mass       
    ------------   -----------------  -----------------  -----------------  -----------------
           H         -2.332716825266     0.059690230492     0.316896372902     1.007825032070
           H         -2.189137190321     1.699434425902    -0.308175773641     1.007825032070
           H         -1.889995354327     0.325581091919    -1.367064687465     1.007825032070
           C         -1.780494959212     0.698735767451    -0.358276140925    12.000000000000
           H          0.247953496413     1.348642140198    -0.646014917382     1.007825032070
           H         -0.194768645417     1.082784846344     1.042340309311     1.007825032070
           C         -0.297946877155     0.706191866416     0.033162253634    12.000000000000
           H         -0.257747135550    -1.344515794644     0.643353287963     1.007825032070
           H          0.185377056406    -1.079653963118    -1.042413978603     1.007825032070
           C          0.291607109136    -0.704355168759    -0.033641615133    12.000000000000
           H          2.402343647675    -0.895532671027    -0.507153725163     1.007825032070
           H          1.984964797591    -1.459880448251     1.101674777458     1.007825032070
           H          2.057531236760     0.262892160205     0.766648260813     1.007825032070
           C          1.785675301465    -0.700525602758     0.358747949935    12.000000000000

  Nuclear repulsion =  131.263897154121338
  Reference energy  = -157.350469714152865

  ==> Basis Set <==

  Basis Set: AUG-CC-PVTZ
    Blend: AUG-CC-PVTZ
    Number of shells: 146
    Number of basis function: 414
    Number of Cartesian functions: 470
    Spherical Harmonics?: true
    Max angular momentum: 3

  ==> CGRSolver (by Rob Parrish) <==

   Number of roots    =         1
   Preconditioning    =    JACOBI
   Convergence cutoff =     1E-06
   Maximum iterations =       100

  ==> CPHFRHamiltonian (by Rob Parrish) <== 

  ==> DFJK: Density-Fitted J/K Matrices <==

    J tasked:                  Yes
    K tasked:                  Yes
    wK tasked:                  No
    OpenMP threads:              1
    Integrals threads:           1
    Memory (MB):               715
    Algorithm:                Core
    Integral Cache:           NONE
    Schwarz Cutoff:          1E-12
    Fitting Condition:       1E-12

   => Auxiliary Basis Set <=

  Basis Set: (AUG-CC-PVTZ AUX)
    Blend: AUG-CC-PVTZ-JKFIT
    Number of shells: 260
    Number of basis function: 876
    Number of Cartesian functions: 1074
    Spherical Harmonics?: true
    Max angular momentum: 4

  ==> CPHF Iterations <==

  => Iterations <=

             Iter  Converged  Remaining    Residual
  CGR           1          0          1   8.293E-02
  CGR           2          0          1   1.330E-02
  CGR           3          0          1   3.488E-03
  CGR           4          0          1   8.141E-04
  CGR           5          0          1   1.197E-04
  CGR           6          0          1   2.188E-05
  CGR           7          0          1   3.966E-06
  CGR           8          1          0   9.680E-07

    CGRSolver converged.

  ==> DFCorrGrad: Density-Fitted Correlated Gradients <==

    OpenMP threads:              1
    Integrals threads:           1
    Memory (MB):               715
    Schwarz Cutoff:          0E+00
    Fitting Condition:       1E-12

   => Auxiliary Basis Set <=

  Basis Set: (AUG-CC-PVTZ AUX)
    Blend: AUG-CC-PVTZ-JKFIT
    Number of shells: 260
    Number of basis function: 876
    Number of Cartesian functions: 1074
    Spherical Harmonics?: true
    Max angular momentum: 4

	-----------------------------------------------------------
	 ==================> DF-MP2 Energies <==================== 
	-----------------------------------------------------------
	 Reference Energy          =    -157.3504697141528652 [Eh]
	 Singles Energy            =      -0.0000000000000001 [Eh]
	 Same-Spin Energy          =      -0.1653400461124155 [Eh]
	 Opposite-Spin Energy      =      -0.6397920360466763 [Eh]
	 Correlation Energy        =      -0.8051320821590919 [Eh]
	 Total Energy              =    -158.1556017963119700 [Eh]
	-----------------------------------------------------------
	 ================> DF-SCS-MP2 Energies <================== 
	-----------------------------------------------------------
	 SCS Same-Spin Scale       =       0.3333333333333333 [-]
	 SCS Opposite-Spin Scale   =       1.2000000000000000 [-]
	 SCS Same-Spin Energy      =      -0.0551133487041385 [Eh]
	 SCS Opposite-Spin Energy  =      -0.7677504432560116 [Eh]
	 SCS Correlation Energy    =      -0.8228637919601502 [Eh]
	 SCS Total Energy          =    -158.1733335061130106 [Eh]
	-----------------------------------------------------------


  -Total Gradient:
     Atom            X                  Y                   Z
    ------   -----------------  -----------------  -----------------
       1        0.003635629214     0.002374639020    -0.001495656201
       2        0.003498604105    -0.002483695531     0.000483670273
       3        0.002285704390     0.001601121061     0.003732785892
       4       -0.014290391944    -0.003919107085    -0.004367936754
       5       -0.003742673424    -0.004140068685     0.000423157565
       6       -0.002591691738    -0.003327563699    -0.003476183936
       7        0.013799481047     0.016172347580     0.007243743033
       8        0.004198830502     0.003537895120    -0.000299661028
       9        0.003445070573     0.003853581940     0.002931861797
      10       -0.012060346300    -0.016038319945    -0.006316436116
      11       -0.004343654759    -0.000281540833     0.001522201105
      12       -0.003474260549     0.002151039064    -0.002162369435
      13       -0.002766893614    -0.002859942018    -0.002336889904
      14        0.012406592496     0.003359614013     0.004117713709


*** tstop() called on gpu-1-4.local at Wed Jun 14 14:40:56 2017
Module time:
	user time   =     284.45 seconds =       4.74 minutes
	system time =       2.95 seconds =       0.05 minutes
	total time  =        287 seconds =       4.78 minutes
Total time:
	user time   =     582.28 seconds =       9.70 minutes
	system time =       6.09 seconds =       0.10 minutes
	total time  =        590 seconds =       9.83 minutes

			-----------------------------------------
			 OPTKING 2.0: for geometry optimizations 
			  - R.A. King,  Bethel University        
			-----------------------------------------

	Previous internal coordinate definitions found.
	---Fragment 1 Geometry and Gradient---
	 H          -4.4081959453        0.1127981884        0.5988473573
	 H          -4.1368697570        3.2114656458       -0.5823678130
	 H          -3.5715736121        0.6152590978       -2.5833778652
	 C          -3.3646478539        1.3204192397       -0.6770437863
	 H           0.4685642019        2.5485642962       -1.2207912716
	 H          -0.3680593991        2.0461668204        1.9697377219
	 C          -0.5630380000        1.3345092248        0.0626675773
	 H          -0.4870714977       -2.5407666332        1.2157615209
	 H           0.3503118679       -2.0402503086       -1.9698769367
	 C           0.5510575747       -1.3310383692       -0.0635734393
	 H           4.5397715712       -1.6923114913       -0.9583816478
	 H           3.7510398509       -2.7587742339        2.0818636169
	 H           3.8881705473        0.4967941853        1.4487552532
	 C           3.3744372820       -1.3238015383        0.6779353761
	             0.0036356292        0.0023746390       -0.0014956562
	             0.0034986041       -0.0024836955        0.0004836703
	             0.0022857044        0.0016011211        0.0037327859
	            -0.0142903919       -0.0039191071       -0.0043679368
	            -0.0037426734       -0.0041400687        0.0004231576
	            -0.0025916917       -0.0033275637       -0.0034761839
	             0.0137994810        0.0161723476        0.0072437430
	             0.0041988305        0.0035378951       -0.0002996610
	             0.0034450706        0.0038535819        0.0029318618
	            -0.0120603463       -0.0160383199       -0.0063164361
	            -0.0043436548       -0.0002815408        0.0015222011
	            -0.0034742605        0.0021510391       -0.0021623694
	            -0.0027668936       -0.0028599420       -0.0023368899
	             0.0124065925        0.0033596140        0.0041177137

	---Fragment 1 Intrafragment Coordinates---
	 - Coordinate -           - BOHR/RAD -       - ANG/DEG -
	 R(1,4)           =         2.043340	       1.081289
	 R(2,4)           =         2.044834	       1.082080
	 R(3,4)           =         2.043081	       1.081152
	 R(4,7)           =         2.897652	       1.533372
	 R(5,7)           =         2.045825	       1.082604
	 R(6,7)           =         2.044845	       1.082085
	 R(7,10)          =         2.891762	       1.530255
	 R(8,10)          =         2.043980	       1.081627
	 R(9,10)          =         2.043838	       1.081552
	 R(10,14)         =         2.919137	       1.544741
	 R(11,14)         =         2.042385	       1.080784
	 R(12,14)         =         2.042545	       1.080868
	 R(13,14)         =         2.042708	       1.080954
	 B(1,4,2)         =         1.901574	     108.952172
	 B(1,4,3)         =         1.903833	     109.081585
	 B(1,4,7)         =         1.914794	     109.709610
	 B(2,4,3)         =         1.900899	     108.913516
	 B(2,4,7)         =         1.927099	     110.414663
	 B(3,4,7)         =         1.915370	     109.742642
	 B(4,7,5)         =         1.907385	     109.285100
	 B(4,7,6)         =         1.909180	     109.387957
	 B(4,7,10)        =         1.935711	     110.908045
	 B(5,7,6)         =         1.907605	     109.297710
	 B(5,7,10)        =         1.902180	     108.986879
	 B(6,7,10)        =         1.901574	     108.952167
	 B(7,10,8)        =         1.899221	     108.817325
	 B(7,10,9)        =         1.899411	     108.828236
	 B(7,10,14)       =         1.938264	     111.054323
	 B(8,10,9)        =         1.905541	     109.179465
	 B(8,10,14)       =         1.911036	     109.494277
	 B(9,10,14)       =         1.910048	     109.437682
	 B(10,14,11)      =         1.926125	     110.358825
	 B(10,14,12)      =         1.929633	     110.559842
	 B(10,14,13)      =         1.919106	     109.956677
	 B(11,14,12)      =         1.895177	     108.585670
	 B(11,14,13)      =         1.896147	     108.641238
	 B(12,14,13)      =         1.896959	     108.687755
	 D(1,4,7,5)       =        -3.140352	    -179.928889
	 D(1,4,7,6)       =        -1.052515	     -60.304689
	 D(1,4,7,10)      =         1.045363	      59.894896
	 D(2,4,7,5)       =        -1.044289	     -59.833348
	 D(2,4,7,6)       =         1.043547	      59.790853
	 D(2,4,7,10)      =         3.141426	     179.990438
	 D(3,4,7,5)       =         1.051305	      60.235363
	 D(3,4,7,6)       =         3.139142	     179.859564
	 D(3,4,7,10)      =        -1.046165	     -59.940851
	 D(4,7,10,8)      =        -1.037828	     -59.463163
	 D(4,7,10,9)      =         1.036925	      59.411444
	 D(4,7,10,14)     =         3.140591	     179.942601
	 D(5,7,10,8)      =        -3.138394	    -179.816709
	 D(5,7,10,9)      =        -1.063640	     -60.942102
	 D(5,7,10,14)     =         1.040025	      59.589055
	 D(6,7,10,8)      =         1.064570	      60.995388
	 D(6,7,10,9)      =         3.139324	     179.869994
	 D(6,7,10,14)     =        -1.040196	     -59.598849
	 D(7,10,14,11)    =        -1.916074	    -109.782970
	 D(7,10,14,12)    =         2.270095	     130.066886
	 D(7,10,14,13)    =         0.175395	      10.049394
	 D(8,10,14,11)    =         2.269342	     130.023707
	 D(8,10,14,12)    =         0.172326	       9.873564
	 D(8,10,14,13)    =        -1.922374	    -110.143929
	 D(9,10,14,11)    =         0.181289	      10.387094
	 D(9,10,14,12)    =        -1.915727	    -109.763049
	 D(9,10,14,13)    =         2.272758	     130.219458

	Current energy   :      -158.1556017963

	Energy change for the previous step:
		Projected    :        -0.0045982100
		Actual       :        -0.0031221921

	Performing BFGS update.
	Previous computed or guess Hessian on step 1.
	Steps to be used in Hessian update: 1
	Adding user-defined constraint: Fragment 1; Coordinate 58:
		Value =     0.175395; Fixed value    =     0.174530
		Force =    -0.000454; Force constant =     0.525000
	Removing off-diagonal coupling between coordinate 58 and others.
	Taking RFO optimization step.
	Going to follow RFO solution 1.
	Using RFO vector 1.

	Determining step-restricting scale parameter for RS-RFO.
	Maximum step size allowed    0.10000

	 Iter      |step|        alpha        rfo_root  
	------------------------------------------------
	    0     0.16263       1.00000           1
	    1     0.13206       7.16388           1
	    2     0.10996      17.49012           1
	    3     0.10142      24.04612           1
	    4     0.10004      25.31808           1
	    5     0.10000      25.35228           1
	------------------------------------------------
	Norm of target step-size    0.10000
	Projected energy change by RFO approximation:        -0.0011158586

	Back-transformation to cartesian coordinates...
	Successfully converged to displaced geometry.

	--- Internal Coordinate Step in ANG or DEG, aJ/ANG or AJ/DEG ---
	 ---------------------------------------------------------------------------
	   Coordinate                Previous        Force       Change         New 
	   ----------                --------       ------       ------       ------
	    1 R(1,4)          =      1.081289     0.034554     0.006274     1.087563
	    2 R(2,4)          =      1.082080     0.029624     0.005113     1.087193
	    3 R(3,4)          =      1.081152     0.035155     0.006368     1.087520
	    4 R(4,7)          =      1.533372    -0.042358    -0.011203     1.522168
	    5 R(5,7)          =      1.082604     0.037977     0.006960     1.089564
	    6 R(6,7)          =      1.082085     0.038287     0.007015     1.089101
	    7 R(7,10)         =      1.530255    -0.040353    -0.009799     1.520455
	    8 R(8,10)         =      1.081627     0.036366     0.006632     1.088260
	    9 R(9,10)         =      1.081552     0.036334     0.006632     1.088185
	   10 R(10,14)        =      1.544741    -0.016952    -0.006507     1.538234
	   11 R(11,14)        =      1.080784     0.030048     0.005352     1.086135
	   12 R(12,14)        =      1.080868     0.029973     0.005271     1.086139
	   13 R(13,14)        =      1.080954     0.033999     0.006304     1.087258
	   14 B(1,4,2)        =    108.952172    -0.000159    -0.666007   108.286165
	   15 B(1,4,3)        =    109.081585    -0.000156    -0.806676   108.274909
	   16 B(1,4,7)        =    109.709610     0.000125     0.600306   110.309916
	   17 B(2,4,3)        =    108.913516    -0.000157    -0.649887   108.263630
	   18 B(2,4,7)        =    110.414663     0.000211     0.852887   111.267550
	   19 B(3,4,7)        =    109.742642     0.000126     0.605681   110.348323
	   20 B(4,7,5)        =    109.285100    -0.000023     0.175526   109.460626
	   21 B(4,7,6)        =    109.387957    -0.000021     0.156128   109.544086
	   22 B(4,7,10)       =    110.908045     0.000285     1.079683   111.987727
	   23 B(5,7,6)        =    109.297710    -0.000077    -1.105719   108.191992
	   24 B(5,7,10)       =    108.986879    -0.000078    -0.139567   108.847312
	   25 B(6,7,10)       =    108.952167    -0.000090    -0.223843   108.728324
	   26 B(7,10,8)       =    108.817325    -0.000108    -0.320628   108.496697
	   27 B(7,10,9)       =    108.828236    -0.000108    -0.224055   108.604182
	   28 B(7,10,14)      =    111.054323     0.000303     1.132847   112.187171
	   29 B(8,10,9)       =    109.179465    -0.000094    -1.208568   107.970897
	   30 B(8,10,14)      =    109.494277     0.000002     0.265164   109.759442
	   31 B(9,10,14)      =    109.437682    -0.000002     0.280822   109.718505
	   32 B(10,14,11)     =    110.358825     0.000212     0.827539   111.186363
	   33 B(10,14,12)     =    110.559842     0.000236     0.983472   111.543313
	   34 B(10,14,13)     =    109.956677     0.000118     0.457111   110.413788
	   35 B(11,14,12)     =    108.585670    -0.000212    -0.794159   107.791511
	   36 B(11,14,13)     =    108.641238    -0.000195    -0.923414   107.717824
	   37 B(12,14,13)     =    108.687755    -0.000176    -0.650762   108.036993
	   38 D(1,4,7,5)      =   -179.928889     0.000010     0.470930  -179.457960
	   39 D(1,4,7,6)      =    -60.304689    -0.000017    -0.676989   -60.981677
	   40 D(1,4,7,10)     =     59.894896    -0.000005    -0.161300    59.733596
	   41 D(2,4,7,5)      =    -59.833348     0.000014     0.578772   -59.254576
	   42 D(2,4,7,6)      =     59.790853    -0.000014    -0.569146    59.221706
	   43 D(2,4,7,10)     =    179.990438    -0.000001    -0.053458   179.936980
	   44 D(3,4,7,5)      =     60.235363     0.000019     0.710689    60.946052
	   45 D(3,4,7,6)      =    179.859564    -0.000009    -0.437229   179.422335
[...]
  CGR           4          0          1   8.145E-04
  CGR           5          0          1   1.190E-04
  CGR           6          0          1   2.228E-05
  CGR           7          0          1   4.076E-06
  CGR           8          0          1   1.025E-06
  CGR           9          1          0   2.631E-07

    CGRSolver converged.

  ==> DFCorrGrad: Density-Fitted Correlated Gradients <==

    OpenMP threads:              1
    Integrals threads:           1
    Memory (MB):               715
    Schwarz Cutoff:          0E+00
    Fitting Condition:       1E-12

   => Auxiliary Basis Set <=

  Basis Set: (AUG-CC-PVTZ AUX)
    Blend: AUG-CC-PVTZ-JKFIT
    Number of shells: 260
    Number of basis function: 876
    Number of Cartesian functions: 1074
    Spherical Harmonics?: true
    Max angular momentum: 4

	-----------------------------------------------------------
	 ==================> DF-MP2 Energies <==================== 
	-----------------------------------------------------------
	 Reference Energy          =    -157.3516720644132647 [Eh]
	 Singles Energy            =      -0.0000000000000001 [Eh]
	 Same-Spin Energy          =      -0.1654503095573646 [Eh]
	 Opposite-Spin Energy      =      -0.6398492027131397 [Eh]
	 Correlation Energy        =      -0.8052995122705044 [Eh]
	 Total Energy              =    -158.1569715766837589 [Eh]
	-----------------------------------------------------------
	 ================> DF-SCS-MP2 Energies <================== 
	-----------------------------------------------------------
	 SCS Same-Spin Scale       =       0.3333333333333333 [-]
	 SCS Opposite-Spin Scale   =       1.2000000000000000 [-]
	 SCS Same-Spin Energy      =      -0.0551501031857882 [Eh]
	 SCS Opposite-Spin Energy  =      -0.7678190432557677 [Eh]
	 SCS Correlation Energy    =      -0.8229691464415559 [Eh]
	 SCS Total Energy          =    -158.1746412108548157 [Eh]
	-----------------------------------------------------------


  -Total Gradient:
     Atom            X                  Y                   Z
    ------   -----------------  -----------------  -----------------
       1        0.000001097167     0.000008269335    -0.000015838009
       2        0.000000157518    -0.000015575828     0.000000146952
       3        0.000001053327     0.000003611505     0.000013445154
       4        0.000006488738     0.000001245315     0.000018688759
       5        0.000005971765    -0.000009848911     0.000017612503
       6        0.000005697428     0.000012305201    -0.000016962857
       7       -0.000371532181    -0.000216320771     0.001358950339
       8        0.000014489049    -0.000006915099    -0.000031078816
       9       -0.000014396772     0.000011774848     0.000003793008
      10        0.000627823511     0.000448374784    -0.002334545359
      11       -0.000027038022    -0.000010101842     0.000027987997
      12        0.000000804395     0.000017207418     0.000016744485
      13        0.000459337153     0.000611607783    -0.001802360167
      14       -0.000709953071    -0.000855633741     0.002743416010


*** tstop() called on gpu-1-4.local at Wed Jun 14 14:59:48 2017
Module time:
	user time   =     273.97 seconds =       4.57 minutes
	system time =       2.77 seconds =       0.05 minutes
	total time  =        277 seconds =       4.62 minutes
Total time:
	user time   =    1702.30 seconds =      28.37 minutes
	system time =      17.56 seconds =       0.29 minutes
	total time  =       1722 seconds =      28.70 minutes

			-----------------------------------------
			 OPTKING 2.0: for geometry optimizations 
			  - R.A. King,  Bethel University        
			-----------------------------------------

	Previous internal coordinate definitions found.
	---Fragment 1 Geometry and Gradient---
	 H          -4.4487706481        0.0943975929        0.5519716858
	 H          -4.1649781611        3.2076400842       -0.5846918570
	 H          -3.5932190452        0.6335040409       -2.6123139614
	 C          -3.3574384395        1.3207389830       -0.6878850476
	 H           0.4727850723        2.5720588880       -1.1772313709
	 H          -0.3794569898        2.0524511850        1.9715605353
	 C          -0.5912757136        1.3107796814        0.0598979220
	 H          -0.4896100657       -2.5348809787        1.2250787567
	 H           0.3133082854       -2.0837379701       -1.9356989120
	 C           0.5722525614       -1.3084922038       -0.0453079048
	 H           4.5681965114       -1.6516056504       -0.9653540891
	 H           3.8137705197       -2.7741703195        2.0589165629
	 H           3.9332691969        0.4945852451        1.4560307555
	 C           3.3743372079       -1.3238866490        0.6742803384
	             0.0000010972        0.0000082693       -0.0000158380
	             0.0000001575       -0.0000155758        0.0000001470
	             0.0000010533        0.0000036115        0.0000134452
	             0.0000064887        0.0000012453        0.0000186888
	             0.0000059718       -0.0000098489        0.0000176125
	             0.0000056974        0.0000123052       -0.0000169629
	            -0.0003715322       -0.0002163208        0.0013589503
	             0.0000144890       -0.0000069151       -0.0000310788
	            -0.0000143968        0.0000117748        0.0000037930
	             0.0006278235        0.0004483748       -0.0023345454
	            -0.0000270380       -0.0000101018        0.0000279880
	             0.0000008044        0.0000172074        0.0000167445
	             0.0004593372        0.0006116078       -0.0018023602
	            -0.0007099531       -0.0008556337        0.0027434160

	---Fragment 1 Intrafragment Coordinates---
	 - Coordinate -           - BOHR/RAD -       - ANG/DEG -
	 R(1,4)           =         2.057222	       1.088635
	 R(2,4)           =         2.055034	       1.087477
	 R(3,4)           =         2.057015	       1.088525
	 R(4,7)           =         2.865473	       1.516343
	 R(5,7)           =         2.062411	       1.091381
	 R(6,7)           =         2.061407	       1.090849
	 R(7,10)          =         2.868005	       1.517683
	 R(8,10)          =         2.060452	       1.090344
	 R(9,10)          =         2.059523	       1.089853
	 R(10,14)         =         2.893047	       1.530935
	 R(11,14)         =         2.054532	       1.087211
	 R(12,14)         =         2.052716	       1.086250
	 R(13,14)         =         2.056788	       1.088406
	 B(1,4,2)         =         1.884539	     107.976156
	 B(1,4,3)         =         1.879553	     107.690456
	 B(1,4,7)         =         1.931307	     110.655755
	 B(2,4,3)         =         1.884618	     107.980653
	 B(2,4,7)         =         1.949186	     111.680159
	 B(3,4,7)         =         1.932247	     110.709604
	 B(4,7,5)         =         1.917061	     109.839491
	 B(4,7,6)         =         1.917659	     109.873775
	 B(4,7,10)        =         1.966257	     112.658248
	 B(5,7,6)         =         1.857954	     106.452903
	 B(5,7,10)        =         1.904140	     109.099177
	 B(6,7,10)        =         1.897494	     108.718381
	 B(7,10,8)        =         1.887979	     108.173245
	 B(7,10,9)        =         1.903328	     109.052635
	 B(7,10,14)       =         1.969987	     112.871924
	 B(8,10,9)        =         1.851552	     106.086131
	 B(8,10,14)       =         1.920508	     110.036999
	 B(9,10,14)       =         1.926316	     110.369801
	 B(10,14,11)      =         1.944604	     111.417628
	 B(10,14,12)      =         1.959383	     112.264381
	 B(10,14,13)      =         1.931614	     110.673311
	 B(11,14,12)      =         1.876777	     107.531379
	 B(11,14,13)      =         1.861312	     106.645317
	 B(12,14,13)      =         1.886096	     108.065314
	 D(1,4,7,5)       =        -3.124557	    -179.023924
	 D(1,4,7,6)       =        -1.086337	     -62.242549
	 D(1,4,7,10)      =         1.032106	      59.135298
	 D(2,4,7,5)       =        -1.024609	     -58.705795
	 D(2,4,7,6)       =         1.013610	      58.075581
	 D(2,4,7,10)      =         3.132053	     179.453427
	 D(3,4,7,5)       =         1.076078	      61.654737
	 D(3,4,7,6)       =         3.114298	     178.436112
	 D(3,4,7,10)      =        -1.050445	     -60.186041
	 D(4,7,10,8)      =        -1.025617	     -58.763507
	 D(4,7,10,9)      =         0.980719	      56.191044
	 D(4,7,10,14)     =         3.128333	     179.240290
	 D(5,7,10,8)      =         3.123750	     178.977691
	 D(5,7,10,9)      =        -1.153100	     -66.067757
	 D(5,7,10,14)     =         0.994515	      56.981488
	 D(6,7,10,8)      =         1.104256	      63.269200
	 D(6,7,10,9)      =         3.110591	     178.223752
	 D(6,7,10,14)     =        -1.024980	     -58.727002
	 D(7,10,14,11)    =        -1.889501	    -108.260457
	 D(7,10,14,12)    =         2.287436	     131.060452
	 D(7,10,14,13)    =         0.178398	      10.221464
	 D(8,10,14,11)    =         2.282859	     130.798166
	 D(8,10,14,12)    =         0.176611	      10.119075
	 D(8,10,14,13)    =        -1.932427	    -110.719914
	 D(9,10,14,11)    =         0.245274	      14.053175
	 D(9,10,14,12)    =        -1.860973	    -106.625915
	 D(9,10,14,13)    =         2.313174	     132.535096

	Current energy   :      -158.1569715767

	Energy change for the previous step:
		Projected    :        -0.0000021682
		Actual       :        -0.0000015540

	Performing BFGS update.
	Previous computed or guess Hessian on step 1.
	Denominators (dg)(dq) or (dq)(dq) are very small.
	 Skipping Hessian update for step 5.
	Steps to be used in Hessian update: 4 3
	Adding user-defined constraint: Fragment 1; Coordinate 58:
		Value =     0.178398; Fixed value    =     0.174530
		Force =    -0.002418; Force constant =     0.625000
	Removing off-diagonal coupling between coordinate 58 and others.
	Taking RFO optimization step.
	Going to follow RFO solution 1.
	Using RFO vector 1.
	Norm of target step-size    0.00349
	Projected energy change by RFO approximation:         0.0000001228

	Back-transformation to cartesian coordinates...
	Successfully converged to displaced geometry.

	--- Internal Coordinate Step in ANG or DEG, aJ/ANG or AJ/DEG ---
	 ---------------------------------------------------------------------------
	   Coordinate                Previous        Force       Change         New 
	   ----------                --------       ------       ------       ------
	    1 R(1,4)          =      1.088635     0.000124     0.000016     1.088651
	    2 R(2,4)          =      1.087477     0.000118     0.000014     1.087491
	    3 R(3,4)          =      1.088525     0.000115     0.000014     1.088539
	    4 R(4,7)          =      1.516343     0.000105     0.000026     1.516369
	    5 R(5,7)          =      1.091381     0.000111     0.000014     1.091395
	    6 R(6,7)          =      1.090849     0.000088     0.000011     1.090860
	    7 R(7,10)         =      1.517683     0.000038     0.000010     1.517693
	    8 R(8,10)         =      1.090344     0.000185     0.000030     1.090374
	    9 R(9,10)         =      1.089853     0.000050     0.000002     1.089855
	   10 R(10,14)        =      1.530935     0.000179     0.000031     1.530966
	   11 R(11,14)        =      1.087211     0.000300     0.000049     1.087260
	   12 R(12,14)        =      1.086250     0.000006    -0.000007     1.086243
	   13 R(13,14)        =      1.088406     0.000160     0.000023     1.088429
	   14 B(1,4,2)        =    107.976156     0.000001     0.002092   107.978248
	   15 B(1,4,3)        =    107.690456     0.000000     0.003475   107.693930
	   16 B(1,4,7)        =    110.655755    -0.000001    -0.004267   110.651488
	   17 B(2,4,3)        =    107.980653     0.000000     0.001094   107.981746
	   18 B(2,4,7)        =    111.680159    -0.000000    -0.003474   111.676685
	   19 B(3,4,7)        =    110.709604     0.000000     0.001461   110.711065
	   20 B(4,7,5)        =    109.839491    -0.000001    -0.007703   109.831788
	   21 B(4,7,6)        =    109.873775     0.000000     0.000348   109.874123
	   22 B(4,7,10)       =    112.658248     0.000000    -0.001712   112.656537
	   23 B(5,7,6)        =    106.452903     0.000001     0.008403   106.461306
	   24 B(5,7,10)       =    109.099177     0.000001     0.005152   109.104328
	   25 B(6,7,10)       =    108.718381    -0.000001    -0.003829   108.714552
	   26 B(7,10,8)       =    108.173245    -0.000002    -0.013260   108.159985
	   27 B(7,10,9)       =    109.052635     0.000001     0.013210   109.065845
	   28 B(7,10,14)      =    112.871924     0.000001     0.000880   112.872803
	   29 B(8,10,9)       =    106.086131     0.000001     0.007229   106.093360
	   30 B(8,10,14)      =    110.036999     0.000000    -0.002549   110.034449
	   31 B(9,10,14)      =    110.369801    -0.000001    -0.005149   110.364651
	   32 B(10,14,11)     =    111.417628     0.000000    -0.004679   111.412949
	   33 B(10,14,12)     =    112.264381    -0.000000     0.002864   112.267246
	   34 B(10,14,13)     =    110.673311     0.000000     0.000451   110.673762
	   35 B(11,14,12)     =    107.531379    -0.000000    -0.001372   107.530007
	   36 B(11,14,13)     =    106.645317    -0.000001    -0.015143   106.630174
	   37 B(12,14,13)     =    108.065314     0.000001     0.017564   108.082878
	   38 D(1,4,7,5)      =   -179.023924     0.000000     0.025132  -178.998792
	   39 D(1,4,7,6)      =    -62.242549     0.000000     0.031019   -62.211530
	   40 D(1,4,7,10)     =     59.135298    -0.000000     0.025211    59.160509
	   41 D(2,4,7,5)      =    -58.705795    -0.000000     0.022553   -58.683242
	   42 D(2,4,7,6)      =     58.075581     0.000000     0.028440    58.104021
	   43 D(2,4,7,10)     =    179.453427    -0.000000     0.022632   179.476059
	   44 D(3,4,7,5)      =     61.654737     0.000000     0.022606    61.677343
	   45 D(3,4,7,6)      =    178.436112     0.000000     0.028493   178.464606
	   46 D(3,4,7,10)     =    -60.186041    -0.000000     0.022686   -60.163356
	   47 D(4,7,10,8)     =    -58.763507    -0.000000    -0.061006   -58.824514
	   48 D(4,7,10,9)     =     56.191044    -0.000000    -0.052648    56.138396
	   49 D(4,7,10,14)    =    179.240290    -0.000000    -0.049039   179.191251
	   50 D(5,7,10,8)     =    178.977691     0.000000    -0.053698   178.923993
	   51 D(5,7,10,9)     =    -66.067757     0.000000    -0.045340   -66.113097
	   52 D(5,7,10,14)    =     56.981488     0.000000    -0.041731    56.939757
	   53 D(6,7,10,8)     =     63.269200    -0.000000    -0.064392    63.204808
	   54 D(6,7,10,9)     =    178.223752    -0.000000    -0.056034   178.167718
	   55 D(6,7,10,14)    =    -58.727002    -0.000000    -0.052425   -58.779428
	   56 D(7,10,14,11)   =   -108.260457    -0.000000     0.020460  -108.239997
	   57 D(7,10,14,12)   =    131.060452    -0.000000     0.023540   131.083992
	   58 D(7,10,14,13)   =     10.221464    -0.000000    -0.001199    10.220265
	   59 D(8,10,14,11)   =    130.798166     0.000000     0.038644   130.836810
	   60 D(8,10,14,12)   =     10.119075     0.000000     0.041723    10.160799
	   61 D(8,10,14,13)   =   -110.719914    -0.000000     0.016985  -110.702929
	   62 D(9,10,14,11)   =     14.053175     0.000000     0.034407    14.087582
	   63 D(9,10,14,12)   =   -106.625915     0.000000     0.037486  -106.588429
	   64 D(9,10,14,13)   =    132.535096    -0.000000     0.012748   132.547844
	 ---------------------------------------------------------------------------
	Successfully symmetrized geometry.
	 Forces used to impose fixed constraints are not included.
	  Forces zeroed: 58 

  ==> Convergence Check <==

  Measures of convergence in internal coordinates in au.
  Criteria marked as inactive (o), active & met (*), and active & unmet ( ).
  ---------------------------------------------------------------------------------------------
   Step     Total Energy     Delta E     MAX Force     RMS Force      MAX Disp      RMS Disp   
  ---------------------------------------------------------------------------------------------
    Convergence Criteria    1.00e-06 *    3.00e-04 *             o    1.20e-03 *             o
  ---------------------------------------------------------------------------------------------
      6    -158.15697158   -1.55e-06      3.64e-05 *    1.09e-05 o    1.12e-03 *    4.37e-04 o  ~
  ---------------------------------------------------------------------------------------------


  **** Optimization is complete! (in 6 steps) ****

  ==> Optimization Summary <==

  Measures of convergence in internal coordinates in au.
  --------------------------------------------------------------------------------------------------------------- ~
   Step         Total Energy             Delta E       MAX Force       RMS Force        MAX Disp        RMS Disp  ~
  --------------------------------------------------------------------------------------------------------------- ~
      1    -158.152479604202   -158.152479604202      0.01279190      0.00572062      0.02705062      0.01250996  ~
      2    -158.155601796312     -0.003122192110      0.00514129      0.00239187      0.03044342      0.01252797  ~
      3    -158.156697002767     -0.001095206455      0.00173726      0.00069714      0.04364302      0.01251487  ~
      4    -158.156955282105     -0.000258279338      0.00100838      0.00019149      0.01563255      0.00479725  ~
      5    -158.156970022642     -0.000014740536      0.00012056      0.00003183      0.00333082      0.00115505  ~
      6    -158.156971576684     -0.000001554042      0.00003644      0.00001131      0.00112386      0.00043670  ~
  --------------------------------------------------------------------------------------------------------------- ~

	Writing optimization data to binary file.
	Final energy is   -158.1569715766838
	Final (previous) structure:
	Cartesian Geometry (in Angstrom)
	    H    -2.3541880332   0.0499530547   0.2920908359
	    H    -2.2040115171   1.6974100259  -0.3094056048
	    H    -1.9014496242   0.3352359000  -1.3823770100
	    C    -1.7766799014   0.6989049683  -0.3640130893
	    H     0.2501870848   1.3610749427  -0.6229640107
	    H    -0.2007999907   1.0861103889   1.0433049006
	    C    -0.3128896317   0.6936347329   0.0316966152
	    H    -0.2590904879  -1.3414012404   0.6482837568
	    H     0.1657956039  -1.1026666424  -1.0243277469
	    C     0.3028230130  -0.6924242519  -0.0239759106
	    H     2.4173854782  -0.8739920678  -0.5108433822
	    H     2.0181604378  -1.4680277058   1.0895317195
	    H     2.0813964143   0.2617232394   0.7704982908
	    C     1.7856223445  -0.7005706414   0.3568137873
	Saving final (previous) structure.
			--------------------------
			 OPTKING Finished Execution 
			--------------------------

    Final optimized geometry and variables:
    Molecular point group: c1
    Full point group: C1

    Geometry (in Angstrom), charge = 0, multiplicity = 1:

    H           -2.354188033235     0.049953054695     0.292090835928
    H           -2.204011517113     1.697410025939    -0.309405604796
    H           -1.901449624188     0.335235899968    -1.382377010048
    C           -1.776679901441     0.698904968285    -0.364013089309
    H            0.250187084833     1.361074942656    -0.622964010742
    H           -0.200799990658     1.086110388855     1.043304900649
    C           -0.312889631651     0.693634732865     0.031696615185
    H           -0.259090487862    -1.341401240417     0.648283756772
    H            0.165795603877    -1.102666642432    -1.024327746930
    C            0.302823013028    -0.692424251885    -0.023975910614
    H            2.417385478211    -0.873992067778    -0.510843382167
    H            2.018160437814    -1.468027705843     1.089531719475
    H            2.081396414266     0.261723239431     0.770498290818
    C            1.785622344492    -0.700570641426     0.356813787305

	Cleaning optimization helper files.

*** Psi4 exiting successfully. Buy a developer a beer!
