
    -----------------------------------------------------------------------
          Psi4: An Open-Source Ab Initio Electronic Structure Package
                               Psi4 1.1 release

                         Git: Rev {HEAD} add49b9 


    R. M. Parrish, L. A. Burns, D. G. A. Smith, A. C. Simmonett,
    A. E. DePrince III, E. G. Hohenstein, U. Bozkaya, A. Yu. Sokolov,
    R. Di Remigio, R. M. Richard, J. F. Gonthier, A. M. James,
    H. R. McAlexander, A. Kumar, M. Saitow, X. Wang, B. P. Pritchard,
    P. Verma, H. F. Schaefer III, K. Patkowski, R. A. King, E. F. Valeev,
    F. A. Evangelista, J. M. Turney, T. D. Crawford, and C. D. Sherrill,
    J. Chem. Theory Comput. in press (2017).
    (doi: 10.1021/acs.jctc.7b00174)

    -----------------------------------------------------------------------


    Psi4 started on: Wednesday, 14 June 2017 02:53PM

    Process ID:   8963
    PSIDATADIR: /cbio/jclab/home/chayas/anaconda/envs/py35/share/psi4
    Memory:     500.0 MiB
    Threads:    1
    
  ==> Input File <==

--------------------------------------------------------------------------

memory 1000 mb

molecule butane {
  symmetry C1
  0 1 
  H      1.604   0.760   -8.260
  H      1.745   2.388   -8.880
  H      2.043   1.024   -9.930
  C      2.142   1.395   -8.932
  H      4.169   2.051   -9.210
  H      3.731   1.788   -7.539
  C      3.631   1.416   -8.537
  H      3.665   -0.647   -7.940
  H      4.104   -0.384   -9.610
  C      4.203   -0.012   -8.612
  H      5.780   0.212   -7.171
  H      6.197   0.771   -8.773
  H      6.132   -0.942   -8.435
  C      5.691   0.009   -8.218
  units Angstrom
}

dih_string = "7 10 14 13 190"
set optking fixed_dihedral = $dih_string

optimize('MP2/aug-cc-pvtz')
--------------------------------------------------------------------------

  Memory set to 953.674 MiB by Python driver.
gradient() will perform analytic gradient computation.

*** tstart() called on gpu-2-10.local
*** at Wed Jun 14 14:53:30 2017

    SCF Algorithm Type (re)set to DF.

*** tstart() called on gpu-2-10.local
*** at Wed Jun 14 14:53:30 2017

   => Loading Basis Set <=

    Name: AUG-CC-PVTZ
    Role: ORBITAL
    Keyword: BASIS
    atoms 1-3, 5-6, 8-9, 11-13 entry H          line    34 file /cbio/jclab/home/chayas/anaconda/envs/py35/share/psi4/basis/aug-cc-pvtz.gbs 
    atoms 4, 7, 10, 14         entry C          line   221 file /cbio/jclab/home/chayas/anaconda/envs/py35/share/psi4/basis/aug-cc-pvtz.gbs 


         ---------------------------------------------------------
                                   SCF
            by Justin Turney, Rob Parrish, and Andy Simmonett
                              RHF Reference
                        1 Threads,    953 MiB Core
         ---------------------------------------------------------

  ==> Geometry <==

    Molecular point group: c1
    Full point group: C1

    Geometry (in Angstrom), charge = 0, multiplicity = 1:

       Center              X                  Y                   Z               Mass       
    ------------   -----------------  -----------------  -----------------  -----------------
           H         -2.312793382205     0.057982647118     0.314758676441     1.007825032070
           H         -2.171793382205     1.685982647118    -0.305241323559     1.007825032070
           H         -1.873793382205     0.321982647118    -1.355241323559     1.007825032070
           C         -1.774793382205     0.692982647118    -0.357241323559    12.000000000000
           H          0.252206617795     1.348982647118    -0.635241323559     1.007825032070
           H         -0.185793382205     1.085982647118     1.035758676441     1.007825032070
           C         -0.285793382205     0.713982647118     0.037758676441    12.000000000000
           H         -0.251793382205    -1.349017352882     0.634758676441     1.007825032070
           H          0.187206617795    -1.086017352882    -1.035241323559     1.007825032070
           C          0.286206617795    -0.714017352882    -0.037241323559    12.000000000000
           H          1.863206617795    -0.490017352882     1.403758676441     1.007825032070
           H          2.280206617795     0.068982647118    -0.198241323559     1.007825032070
           H          2.215206617795    -1.644017352882     0.139758676441     1.007825032070
           C          1.774206617795    -0.693017352882     0.356758676441    12.000000000000

  Running in c1 symmetry.

  Rotational constants: A =      0.76948  B =      0.12464  C =      0.11638 [cm^-1]
  Rotational constants: A =  23068.43463  B =   3736.58851  C =   3488.84953 [MHz]
  Nuclear repulsion =  131.818451373347642

  Charge       = 0
  Multiplicity = 1
  Electrons    = 34
  Nalpha       = 17
  Nbeta        = 17

  ==> Algorithm <==

  SCF Algorithm Type is DF.
  DIIS enabled.
  MOM disabled.
  Fractional occupation disabled.
  Guess Type is SAD.
  Energy threshold   = 1.00e-10
  Density threshold  = 1.00e-10
  Integral threshold = 0.00e+00

  ==> Primary Basis <==

  Basis Set: AUG-CC-PVTZ
    Blend: AUG-CC-PVTZ
    Number of shells: 146
    Number of basis function: 414
    Number of Cartesian functions: 470
    Spherical Harmonics?: true
    Max angular momentum: 3

   => Loading Basis Set <=

    Name: (AUG-CC-PVTZ AUX)
    Role: JKFIT
    Keyword: DF_BASIS_SCF
    atoms 1-3, 5-6, 8-9, 11-13 entry H          line    69 file /cbio/jclab/home/chayas/anaconda/envs/py35/share/psi4/basis/aug-cc-pvtz-jkfit.gbs 
    atoms 4, 7, 10, 14         entry C          line   161 file /cbio/jclab/home/chayas/anaconda/envs/py35/share/psi4/basis/aug-cc-pvtz-jkfit.gbs 

  ==> Pre-Iterations <==

   -------------------------------------------------------
    Irrep   Nso     Nmo     Nalpha   Nbeta   Ndocc  Nsocc
   -------------------------------------------------------
     A        414     414       0       0       0       0
   -------------------------------------------------------
    Total     414     414      17      17      17       0
   -------------------------------------------------------

  ==> Integral Setup <==

  ==> DFJK: Density-Fitted J/K Matrices <==

    J tasked:                  Yes
    K tasked:                  Yes
    wK tasked:                  No
    OpenMP threads:              1
    Integrals threads:           1
    Memory (MB):               715
    Algorithm:                Core
    Integral Cache:           NONE
    Schwarz Cutoff:          1E-12
    Fitting Condition:       1E-12

   => Auxiliary Basis Set <=

  Basis Set: (AUG-CC-PVTZ AUX)
    Blend: AUG-CC-PVTZ-JKFIT
    Number of shells: 260
    Number of basis function: 876
    Number of Cartesian functions: 1074
    Spherical Harmonics?: true
    Max angular momentum: 4

  Minimum eigenvalue in the overlap matrix is 7.9193935130E-06.
  Using Symmetric Orthogonalization.

  SCF Guess: Superposition of Atomic Densities via on-the-fly atomic UHF.

  ==> Iterations <==

                           Total Energy        Delta E     RMS |[F,P]|

   @DF-RHF iter   0:  -159.06945130218918   -1.59069e+02   9.59776e-03 
   @DF-RHF iter   1:  -157.25982547491844    1.80963e+00   8.27727e-04 
   @DF-RHF iter   2:  -157.34325454011918   -8.34291e-02   2.38215e-04 DIIS
   @DF-RHF iter   3:  -157.35125488207419   -8.00034e-03   9.49227e-05 DIIS
   @DF-RHF iter   4:  -157.35238202197831   -1.12714e-03   2.04379e-05 DIIS
   @DF-RHF iter   5:  -157.35245768187113   -7.56599e-05   3.74214e-06 DIIS
   @DF-RHF iter   6:  -157.35246120074737   -3.51888e-06   6.31462e-07 DIIS
   @DF-RHF iter   7:  -157.35246128604513   -8.52978e-08   1.39777e-07 DIIS
   @DF-RHF iter   8:  -157.35246128946363   -3.41851e-09   3.35237e-08 DIIS
   @DF-RHF iter   9:  -157.35246128966776   -2.04125e-10   9.09081e-09 DIIS
   @DF-RHF iter  10:  -157.35246128968447   -1.67120e-11   2.08113e-09 DIIS
   @DF-RHF iter  11:  -157.35246128968404    4.26326e-13   4.07184e-10 DIIS
   @DF-RHF iter  12:  -157.35246128968529   -1.25056e-12   1.03265e-10 DIIS
   @DF-RHF iter  13:  -157.35246128968402    1.27898e-12   2.82495e-11 DIIS

  ==> Post-Iterations <==

    Orbital Energies (a.u.)
    -----------------------

    Doubly Occupied:                                                      

       1A    -11.207107     2A    -11.206443     3A    -11.198758  
       4A    -11.198664     5A     -1.070681     6A     -0.981168  
       7A     -0.861575     8A     -0.794871     9A     -0.647580  
      10A     -0.587578    11A     -0.575267    12A     -0.570577  
      13A     -0.514538    14A     -0.503500    15A     -0.476027  
      16A     -0.468566    17A     -0.441708  

    Virtual:                                                              

      18A      0.032268    19A      0.037065    20A      0.039644  
      21A      0.040907    22A      0.056624    23A      0.058499  
      24A      0.059659    25A      0.061153    26A      0.081982  
      27A      0.085061    28A      0.096708    29A      0.112368  
      30A      0.123314    31A      0.130746    32A      0.135625  
      33A      0.142021    34A      0.143716    35A      0.146824  
      36A      0.148421    37A      0.159578    38A      0.159784  
      39A      0.167853    40A      0.170482    41A      0.202203  
      42A      0.209430    43A      0.211746    44A      0.230035  
      45A      0.249360    46A      0.250719    47A      0.251837  
      48A      0.270182    49A      0.275388    50A      0.282011  
      51A      0.282608    52A      0.316019    53A      0.318644  
      54A      0.332140    55A      0.337809    56A      0.339704  
      57A      0.348553    58A      0.357283    59A      0.358530  
      60A      0.360410    61A      0.373903    62A      0.374367  
      63A      0.384509    64A      0.389003    65A      0.390441  
      66A      0.392299    67A      0.395397    68A      0.402698  
      69A      0.408848    70A      0.414587    71A      0.424529  
      72A      0.430261    73A      0.443609    74A      0.449198  
      75A      0.457636    76A      0.462315    77A      0.464739  
      78A      0.469324    79A      0.475916    80A      0.477388  
      81A      0.485328    82A      0.491754    83A      0.499389  
      84A      0.506118    85A      0.507375    86A      0.511434  
      87A      0.522984    88A      0.526241    89A      0.528883  
      90A      0.537346    91A      0.545940    92A      0.561848  
      93A      0.565462    94A      0.576104    95A      0.587215  
      96A      0.595908    97A      0.599083    98A      0.613613  
      99A      0.626727   100A      0.634384   101A      0.639593  
     102A      0.655951   103A      0.685602   104A      0.691856  
     105A      0.702748   106A      0.705786   107A      0.763976  
     108A      0.777626   109A      0.797315   110A      0.817093  
     111A      0.824092   112A      0.826721   113A      0.838960  
     114A      0.843522   115A      0.846473   116A      0.856839  
     117A      0.861533   118A      0.865210   119A      0.887609  
     120A      0.890933   121A      0.898273   122A      0.904490  
     123A      0.908938   124A      0.922238   125A      0.924608  
     126A      0.933571   127A      0.938951   128A      0.947070  
     129A      0.949510   130A      0.960625   131A      0.964261  
     132A      0.969265   133A      0.983180   134A      0.990794  
     135A      0.996210   136A      1.010667   137A      1.012658  
     138A      1.030968   139A      1.048473   140A      1.055775  
     141A      1.072077   142A      1.079392   143A      1.097266  
     144A      1.104822   145A      1.111851   146A      1.127609  
     147A      1.131765   148A      1.133416   149A      1.136925  
     150A      1.162226   151A      1.165619   152A      1.169137  
     153A      1.175034   154A      1.199875   155A      1.202880  
     156A      1.214748   157A      1.225870   158A      1.244098  
     159A      1.253493   160A      1.256596   161A      1.261517  
     162A      1.266612   163A      1.274555   164A      1.280414  
     165A      1.289684   166A      1.305517   167A      1.314702  
     168A      1.330287   169A      1.343709   170A      1.353240  
     171A      1.361699   172A      1.375268   173A      1.393370  
     174A      1.428785   175A      1.433074   176A      1.438878  
     177A      1.463235   178A      1.486032   179A      1.496146  
     180A      1.503322   181A      1.530118   182A      1.533393  
     183A      1.551241   184A      1.557680   185A      1.577641  
     186A      1.581507   187A      1.596696   188A      1.616260  
     189A      1.627807   190A      1.637583   191A      1.646412  
     192A      1.649908   193A      1.684151   194A      1.688359  
     195A      1.700371   196A      1.703046   197A      1.711997  
     198A      1.715590   199A      1.737688   200A      1.740304  
     201A      1.748809   202A      1.758229   203A      1.760964  
     204A      1.778459   205A      1.780608   206A      1.787659  
     207A      1.793749   208A      1.801740   209A      1.829465  
     210A      1.850344   211A      1.864152   212A      1.870963  
     213A      1.890498   214A      1.900427   215A      1.919313  
     216A      1.921589   217A      1.966561   218A      1.976899  
     219A      1.983990   220A      1.986572   221A      1.994993  
     222A      1.998938   223A      2.034541   224A      2.051022  
     225A      2.058701   226A      2.069840   227A      2.098267  
     228A      2.105101   229A      2.145149   230A      2.151212  
     231A      2.161292   232A      2.189464   233A      2.194224  
     234A      2.206299   235A      2.246674   236A      2.258033  
     237A      2.260859   238A      2.291333   239A      2.307384  
     240A      2.322508   241A      2.333960   242A      2.334080  
     243A      2.345337   244A      2.352680   245A      2.376991  
     246A      2.388586   247A      2.433090   248A      2.457546  
     249A      2.471899   250A      2.473828   251A      2.504261  
     252A      2.548236   253A      2.607384   254A      2.618591  
     255A      2.650515   256A      2.676467   257A      2.689618  
     258A      2.885261   259A      2.901601   260A      3.006711  
     261A      3.236196   262A      3.255573   263A      3.274482  
     264A      3.382048   265A      3.401087   266A      3.420910  
     267A      3.452918   268A      3.462583   269A      3.480087  
     270A      3.482437   271A      3.519752   272A      3.535470  
     273A      3.562737   274A      3.575633   275A      3.592621  
     276A      3.606858   277A      3.623934   278A      3.666845  
     279A      3.690315   280A      3.694239   281A      3.719725  
     282A      3.727493   283A      3.729661   284A      3.740450  
     285A      3.753399   286A      3.759339   287A      3.790995  
     288A      3.795555   289A      3.806971   290A      3.817669  
     291A      3.844563   292A      3.857650   293A      3.881551  
     294A      3.890529   295A      3.913815   296A      3.918584  
     297A      3.931548   298A      3.938484   299A      3.967255  
     300A      4.000422   301A      4.009955   302A      4.015099  
     303A      4.020543   304A      4.027744   305A      4.045723  
     306A      4.052533   307A      4.066299   308A      4.077590  
     309A      4.134969   310A      4.179943   311A      4.209461  
     312A      4.220260   313A      4.230546   314A      4.246945  
     315A      4.254491   316A      4.270390   317A      4.278372  
     318A      4.286400   319A      4.308357   320A      4.322713  
     321A      4.349744   322A      4.367113   323A      4.375170  
     324A      4.405435   325A      4.426052   326A      4.436063  
     327A      4.537663   328A      4.556295   329A      4.579706  
     330A      4.589050   331A      4.638732   332A      4.665328  
     333A      4.691358   334A      4.706105   335A      4.726001  
     336A      4.742453   337A      4.744923   338A      4.758721  
     339A      4.765943   340A      4.804630   341A      4.812154  
     342A      4.858921   343A      4.870155   344A      4.883332  
     345A      4.888573   346A      4.903202   347A      4.925795  
     348A      4.954106   349A      4.973050   350A      4.998645  
     351A      5.046915   352A      5.062346   353A      5.079806  
     354A      5.101879   355A      5.127049   356A      5.183653  
     357A      5.187107   358A      5.214986   359A      5.224263  
     360A      5.228996   361A      5.257375   362A      5.270122  
     363A      5.273593   364A      5.295287   365A      5.308243  
     366A      5.362050   367A      5.399802   368A      5.423694  
     369A      5.435976   370A      5.441199   371A      5.456729  
     372A      5.461209   373A      5.483772   374A      5.507327  
     375A      5.576288   376A      5.598122   377A      5.627301  
     378A      5.635812   379A      5.684799   380A      5.690405  
     381A      5.694263   382A      5.752386   383A      5.772295  
     384A      5.802430   385A      5.826280   386A      5.878023  
     387A      5.905549   388A      5.921149   389A      5.950395  
     390A      6.031420   391A      6.105084   392A      6.156513  
     393A      6.166567   394A      6.172788   395A      6.254739  
     396A      6.261503   397A      6.279186   398A      6.306730  
     399A      6.310423   400A      6.360201   401A      6.400365  
     402A      6.441149   403A      6.551380   404A      6.558280  
     405A      6.752007   406A      6.783183   407A      6.824926  
     408A      6.842458   409A      6.862147   410A      6.984330  
     411A     18.017280   412A     18.376309   413A     18.459610  
     414A     18.895635  

    Final Occupation by Irrep:
              A 
    DOCC [    17 ]

  Energy converged.

  @DF-RHF Final Energy:  -157.35246128968402

   => Energetics <=

    Nuclear Repulsion Energy =            131.8184513733476422
    One-Electron Energy =                -471.7326036916151679
    Two-Electron Energy =                 182.5616910285834820
    DFT Exchange-Correlation Energy =       0.0000000000000000
    Empirical Dispersion Energy =           0.0000000000000000
    PCM Polarization Energy =               0.0000000000000000
    EFP Energy =                            0.0000000000000000
    Total Energy =                       -157.3524612896840154



Properties will be evaluated at   0.000000,   0.000000,   0.000000 Bohr

Properties computed using the SCF density matrix

  Nuclear Dipole Moment: (a.u.)
     X:     0.0019      Y:     0.0008      Z:    -0.0004

  Electronic Dipole Moment: (a.u.)
     X:    -0.0023      Y:    -0.0013      Z:     0.0010

  Dipole Moment: (a.u.)
     X:    -0.0004      Y:    -0.0005      Z:     0.0006     Total:     0.0009

  Dipole Moment: (Debye)
     X:    -0.0009      Y:    -0.0014      Z:     0.0015     Total:     0.0023


*** tstop() called on gpu-2-10.local at Wed Jun 14 14:54:55 2017
Module time:
	user time   =      84.56 seconds =       1.41 minutes
	system time =       0.57 seconds =       0.01 minutes
	total time  =         85 seconds =       1.42 minutes
Total time:
	user time   =      84.56 seconds =       1.41 minutes
	system time =       0.57 seconds =       0.01 minutes
	total time  =         85 seconds =       1.42 minutes

  //>>>>>>>>>>>>>>>>>>>>>>>>>>>>>>>>>>>//
  //               DFMP2               //
  //<<<<<<<<<<<<<<<<<<<<<<<<<<<<<<<<<<<//

   => Loading Basis Set <=

    Name: (AUG-CC-PVTZ AUX)
    Role: RIFIT
    Keyword: DF_BASIS_MP2
    atoms 1-3, 5-6, 8-9, 11-13 entry H          line    29 file /cbio/jclab/home/chayas/anaconda/envs/py35/share/psi4/basis/aug-cc-pvtz-ri.gbs 
    atoms 4, 7, 10, 14         entry C          line   147 file /cbio/jclab/home/chayas/anaconda/envs/py35/share/psi4/basis/aug-cc-pvtz-ri.gbs 

	 --------------------------------------------------------
	                          DF-MP2                         
	      2nd-Order Density-Fitted Moller-Plesset Theory     
	              RMP2 Wavefunction,   1 Threads             
	                                                         
	        Rob Parrish, Justin Turney, Andy Simmonett,      
	           Ed Hohenstein, and C. David Sherrill          
	 --------------------------------------------------------

   => Auxiliary Basis Set <=

  Basis Set: (AUG-CC-PVTZ AUX)
    Blend: AUG-CC-PVTZ-RI
    Number of shells: 252
    Number of basis function: 884
    Number of Cartesian functions: 1094
    Spherical Harmonics?: true
    Max angular momentum: 4

	 --------------------------------------------------------
	                 NBF =   414, NAUX =   884
	 --------------------------------------------------------
	   CLASS    FOCC     OCC    AOCC    AVIR     VIR    FVIR
	   PAIRS       0      17      17     397     397       0
	 --------------------------------------------------------


         ------------------------------------------------------------
                                     CPHF                           
                                  Rob Parrish                       
         ------------------------------------------------------------

  ==> Geometry <==

    Molecular point group: c1
    Full point group: C1

    Geometry (in Angstrom), charge = 0, multiplicity = 1:

       Center              X                  Y                   Z               Mass       
    ------------   -----------------  -----------------  -----------------  -----------------
           H         -2.312793382205     0.057982647118     0.314758676441     1.007825032070
           H         -2.171793382205     1.685982647118    -0.305241323559     1.007825032070
           H         -1.873793382205     0.321982647118    -1.355241323559     1.007825032070
           C         -1.774793382205     0.692982647118    -0.357241323559    12.000000000000
           H          0.252206617795     1.348982647118    -0.635241323559     1.007825032070
           H         -0.185793382205     1.085982647118     1.035758676441     1.007825032070
           C         -0.285793382205     0.713982647118     0.037758676441    12.000000000000
           H         -0.251793382205    -1.349017352882     0.634758676441     1.007825032070
           H          0.187206617795    -1.086017352882    -1.035241323559     1.007825032070
           C          0.286206617795    -0.714017352882    -0.037241323559    12.000000000000
           H          1.863206617795    -0.490017352882     1.403758676441     1.007825032070
           H          2.280206617795     0.068982647118    -0.198241323559     1.007825032070
           H          2.215206617795    -1.644017352882     0.139758676441     1.007825032070
           C          1.774206617795    -0.693017352882     0.356758676441    12.000000000000

  Nuclear repulsion =  131.818451373347642
  Reference energy  = -157.352461289684015

  ==> Basis Set <==

  Basis Set: AUG-CC-PVTZ
    Blend: AUG-CC-PVTZ
    Number of shells: 146
    Number of basis function: 414
    Number of Cartesian functions: 470
    Spherical Harmonics?: true
    Max angular momentum: 3

  ==> CGRSolver (by Rob Parrish) <==

   Number of roots    =         1
   Preconditioning    =    JACOBI
   Convergence cutoff =     1E-06
   Maximum iterations =       100

  ==> CPHFRHamiltonian (by Rob Parrish) <== 

  ==> DFJK: Density-Fitted J/K Matrices <==

    J tasked:                  Yes
    K tasked:                  Yes
    wK tasked:                  No
    OpenMP threads:              1
    Integrals threads:           1
    Memory (MB):               715
    Algorithm:                Core
    Integral Cache:           NONE
    Schwarz Cutoff:          1E-12
    Fitting Condition:       1E-12

   => Auxiliary Basis Set <=

  Basis Set: (AUG-CC-PVTZ AUX)
    Blend: AUG-CC-PVTZ-JKFIT
    Number of shells: 260
    Number of basis function: 876
    Number of Cartesian functions: 1074
    Spherical Harmonics?: true
    Max angular momentum: 4

  ==> CPHF Iterations <==

  => Iterations <=

             Iter  Converged  Remaining    Residual
  CGR           1          0          1   8.155E-02
  CGR           2          0          1   1.303E-02
  CGR           3          0          1   3.410E-03
  CGR           4          0          1   8.042E-04
  CGR           5          0          1   1.180E-04
  CGR           6          0          1   2.102E-05
  CGR           7          0          1   3.641E-06
  CGR           8          1          0   8.021E-07

    CGRSolver converged.

  ==> DFCorrGrad: Density-Fitted Correlated Gradients <==

    OpenMP threads:              1
    Integrals threads:           1
    Memory (MB):               715
    Schwarz Cutoff:          0E+00
    Fitting Condition:       1E-12

   => Auxiliary Basis Set <=

  Basis Set: (AUG-CC-PVTZ AUX)
    Blend: AUG-CC-PVTZ-JKFIT
    Number of shells: 260
    Number of basis function: 876
    Number of Cartesian functions: 1074
    Spherical Harmonics?: true
    Max angular momentum: 4

	-----------------------------------------------------------
	 ==================> DF-MP2 Energies <==================== 
	-----------------------------------------------------------
	 Reference Energy          =    -157.3524612896840154 [Eh]
	 Singles Energy            =      -0.0000000000000000 [Eh]
	 Same-Spin Energy          =      -0.1653738628441069 [Eh]
	 Opposite-Spin Energy      =      -0.6387101014503561 [Eh]
	 Correlation Energy        =      -0.8040839642944629 [Eh]
	 Total Energy              =    -158.1565452539784644 [Eh]
	-----------------------------------------------------------
	 ================> DF-SCS-MP2 Energies <================== 
	-----------------------------------------------------------
	 SCS Same-Spin Scale       =       0.3333333333333333 [-]
	 SCS Opposite-Spin Scale   =       1.2000000000000000 [-]
	 SCS Same-Spin Energy      =      -0.0551246209480356 [Eh]
	 SCS Opposite-Spin Energy  =      -0.7664521217404273 [Eh]
	 SCS Correlation Energy    =      -0.8215767426884629 [Eh]
	 SCS Total Energy          =    -158.1740380323724651 [Eh]
	-----------------------------------------------------------


  -Total Gradient:
     Atom            X                  Y                   Z
    ------   -----------------  -----------------  -----------------
       1        0.007934021118     0.006740087600    -0.006325542152
       2        0.008163255884    -0.009356747884     0.000611760800
       3        0.003238052107     0.004186809698     0.011236081745
       4       -0.025145394687    -0.007021981184    -0.008191636946
       5       -0.007734064784    -0.008015352019     0.006107082172
       6       -0.003245691072    -0.005795454354    -0.011538528748
       7        0.022169717190     0.031161136112     0.010590794827
       8        0.007960034501     0.008759652456    -0.005986339541
       9        0.003402787491     0.005168217034     0.011696064529
      10       -0.021430208272    -0.031280831442    -0.010014247140
      11       -0.003427780335    -0.002745311054    -0.010955514397
      12       -0.007539860805    -0.007643572817     0.005455468256
      13       -0.008471472610     0.009233727316     0.000328328715
      14        0.024126604274     0.006609620540     0.006986227881


*** tstop() called on gpu-2-10.local at Wed Jun 14 15:01:05 2017
Module time:
	user time   =     452.11 seconds =       7.54 minutes
	system time =       3.35 seconds =       0.06 minutes
	total time  =        455 seconds =       7.58 minutes
Total time:
	user time   =     452.11 seconds =       7.54 minutes
	system time =       3.35 seconds =       0.06 minutes
	total time  =        455 seconds =       7.58 minutes

			-----------------------------------------
			 OPTKING 2.0: for geometry optimizations 
			  - R.A. King,  Bethel University        
			-----------------------------------------

	Internal coordinates to be generated automatically.
	Detected frag 1 with atoms:  1 2 3 4 5 6 7 8 9 10 11 12 13 14
	---Fragment 1 Bond Connectivity---
	 1 : 4
	 2 : 4
	 3 : 4
	 4 : 1 2 3 7
	 5 : 7
	 6 : 7
	 7 : 4 5 6 10
	 8 : 10
	 9 : 10
	 10 : 7 8 9 14
	 11 : 14
	 12 : 14
	 13 : 14
	 14 : 10 11 12 13

	Assuming in current code that numbering for constraints corresponds to unified fragment.
	Fixed dihedral atom list: 
	     7    10    14    13
	---Fragment 1 Geometry and Gradient---
	 H          -4.3705460943        0.1095713235        0.5948076964
	 H          -4.1040947096        3.1860454679       -0.5768225060
	 H          -3.5409563220        0.6084590226       -2.5610349455
	 C          -3.3538734348        1.3095474179       -0.6750882649
	 H           0.4766014365        2.5492077611       -1.2004321298
	 H          -0.3510986097        2.0522097881        1.9573002382
	 C          -0.5400712230        1.3492316667        0.0713535576
	 H          -0.4758205344       -2.5492733455        1.1995200589
	 H           0.3537692379       -2.0522753725       -1.9563225830
	 C           0.5408521251       -1.3492972511       -0.0703759024
	 H           3.5209502366       -0.9259985973        2.6527194551
	 H           4.3089660340        0.1303583110       -0.3746218097
	 H           4.1861338354       -3.1067425547        0.2641056232
	 C           3.3527646108       -1.3096130023        0.6741761940
	             0.0079340211        0.0067400876       -0.0063255422
	             0.0081632559       -0.0093567479        0.0006117608
	             0.0032380521        0.0041868097        0.0112360817
	            -0.0251453947       -0.0070219812       -0.0081916369
	            -0.0077340648       -0.0080153520        0.0061070822
	            -0.0032456911       -0.0057954544       -0.0115385287
	             0.0221697172        0.0311611361        0.0105907948
	             0.0079600345        0.0087596525       -0.0059863395
	             0.0034027875        0.0051682170        0.0116960645
	            -0.0214302083       -0.0312808314       -0.0100142471
	            -0.0034277803       -0.0027453111       -0.0109555144
	            -0.0075398608       -0.0076435728        0.0054554683
	            -0.0084714726        0.0092337273        0.0003283287
	             0.0241266043        0.0066096205        0.0069862279

	Previous optimization step data not found.  Starting new optimization.

	---Fragment 1 Intrafragment Coordinates---
	 - Coordinate -           - BOHR/RAD -       - ANG/DEG -
	 R(1,4)           =         2.021436	       1.069698
	 R(2,4)           =         2.023298	       1.070683
	 R(3,4)           =         2.020723	       1.069320
	 R(4,7)           =         2.911397	       1.540645
	 R(5,7)           =         2.022623	       1.070326
	 R(6,7)           =         2.021555	       1.069761
	 R(7,10)          =         2.910419	       1.540128
	 R(8,10)          =         2.021436	       1.069698
	 R(9,10)          =         2.021379	       1.069668
	 R(10,14)         =         2.909087	       1.539422
	 R(11,14)         =         2.022395	       1.070205
	 R(12,14)         =         2.021835	       1.069909
	 R(13,14)         =         2.022952	       1.070500
	 B(1,4,2)         =         1.910870	     109.484805
	 B(1,4,3)         =         1.911121	     109.499161
	 B(1,4,7)         =         1.910399	     109.457783
	 B(2,4,3)         =         1.910042	     109.437340
	 B(2,4,7)         =         1.910564	     109.467262
	 B(3,4,7)         =         1.910803	     109.480971
	 B(4,7,5)         =         1.909937	     109.431343
	 B(4,7,6)         =         1.911630	     109.528316
	 B(4,7,10)        =         1.911154	     109.501062
	 B(5,7,6)         =         1.910605	     109.469614
	 B(5,7,10)        =         1.910047	     109.437654
	 B(6,7,10)        =         1.910425	     109.459295
	 B(7,10,8)        =         1.910303	     109.452301
	 B(7,10,9)        =         1.910824	     109.482155
	 B(7,10,14)       =         1.911213	     109.504437
	 B(8,10,9)        =         1.910417	     109.458846
	 B(8,10,14)       =         1.910766	     109.478806
	 B(9,10,14)       =         1.910276	     109.450772
	 B(10,14,11)      =         1.910664	     109.472959
	 B(10,14,12)      =         1.911436	     109.517206
	 B(10,14,13)      =         1.911548	     109.523654
	 B(11,14,12)      =         1.910347	     109.454822
	 B(11,14,13)      =         1.909817	     109.424442
	 B(12,14,13)      =         1.909987	     109.434175
	 D(1,4,7,5)       =         3.140997	     179.965873
	 D(1,4,7,6)       =        -1.047644	     -60.025575
	 D(1,4,7,10)      =         1.047427	      60.013132
	 D(2,4,7,5)       =        -1.047689	     -60.028143
	 D(2,4,7,6)       =         1.046856	      59.980409
	 D(2,4,7,10)      =        -3.141259	    -179.980883
	 D(3,4,7,5)       =         1.046044	      59.933911
	 D(3,4,7,6)       =         3.140588	     179.942463
	 D(3,4,7,10)      =        -1.047526	     -60.018830
	 D(4,7,10,8)      =        -1.047368	     -60.009777
	 D(4,7,10,9)      =         1.046677	      59.970178
	 D(4,7,10,14)     =         3.141107	     179.972182
	 D(5,7,10,8)      =        -3.140871	    -179.958653
	 D(5,7,10,9)      =        -1.046826	     -59.978698
	 D(5,7,10,14)     =         1.047604	      60.023306
	 D(6,7,10,8)      =         1.048439	      60.071149
	 D(6,7,10,9)      =        -3.140701	    -179.948896
	 D(6,7,10,14)     =        -1.046271	     -59.946893
	 D(7,10,14,11)    =         1.221755	      70.001412
	 D(7,10,14,12)    =        -0.872800	     -50.007741
	 D(7,10,14,13)    =        -2.967456	    -170.022707
	 D(8,10,14,11)    =        -0.872672	     -50.000410
	 D(8,10,14,12)    =        -2.967227	    -170.009563
	 D(8,10,14,13)    =         1.221302	      69.975471
	 D(9,10,14,11)    =        -2.966665	    -169.977381
	 D(9,10,14,12)    =         1.221966	      70.013467
	 D(9,10,14,13)    =        -0.872691	     -50.001500

	Current energy   :      -158.1565452540

	Generating empirical Hessian (Schlegel '84) for each fragment.
	Adding user-defined constraint: Fragment 1; Coordinate 58:
		Value =    -2.967456; Fixed value    =    -2.967060
		Force =     0.000198; Force constant =     0.500000
	Removing off-diagonal coupling between coordinate 58 and others.
	Taking RFO optimization step.
	Going to follow RFO solution 1.
	Using RFO vector 1.

	Determining step-restricting scale parameter for RS-RFO.
	Maximum step size allowed    0.10000

	 Iter      |step|        alpha        rfo_root  
	------------------------------------------------
	    0     0.18577       1.00000           1
	    1     0.14594       6.71374           1
	    2     0.11792      18.37632           1
	    3     0.10401      29.88541           1
	    4     0.10027      34.10067           1
	    5     0.10000      34.42575           1
	------------------------------------------------
	Norm of target step-size    0.10000
	Projected energy change by RFO approximation:        -0.0040105475

	Back-transformation to cartesian coordinates...
	Could not converge backtransformation.
	Using first guess instead.

	--- Internal Coordinate Step in ANG or DEG, aJ/ANG or AJ/DEG ---
	 ---------------------------------------------------------------------------
	   Coordinate                Previous        Force       Change         New 
	   ----------                --------       ------       ------       ------
	    1 R(1,4)          =      1.069698     0.098579     0.012189     1.081886
	    2 R(2,4)          =      1.070683     0.096187     0.011910     1.082593
	    3 R(3,4)          =      1.069320     0.100834     0.012452     1.081772
	    4 R(4,7)          =      1.540645    -0.052513    -0.007713     1.532932
	    5 R(5,7)          =      1.070326     0.102843     0.012683     1.083009
	    6 R(6,7)          =      1.069761     0.107789     0.013274     1.083035
	    7 R(7,10)         =      1.540128    -0.075429    -0.010988     1.529140
	    8 R(8,10)         =      1.069698     0.106808     0.013153     1.082851
	    9 R(9,10)         =      1.069668     0.107307     0.013213     1.082880
	   10 R(10,14)        =      1.539422    -0.041768    -0.006102     1.533321
	   11 R(11,14)        =      1.070205     0.094941     0.011750     1.081955
	   12 R(12,14)        =      1.069909     0.097544     0.012081     1.081990
	   13 R(13,14)        =      1.070500     0.096882     0.011989     1.082490
	   14 B(1,4,2)        =    109.484805    -0.000253    -0.591815   108.892990
	   15 B(1,4,3)        =    109.499161    -0.000172    -0.464337   109.034824
	   16 B(1,4,7)        =    109.457783     0.000139     0.319076   109.776858
	   17 B(2,4,3)        =    109.437340    -0.000241    -0.564820   108.872520
	   18 B(2,4,7)        =    109.467262     0.000411     1.019732   110.486994
	   19 B(3,4,7)        =    109.480971     0.000117     0.266288   109.747259
	   20 B(4,7,5)        =    109.431343    -0.000110    -0.122671   109.308672
	   21 B(4,7,6)        =    109.528316    -0.000131    -0.180663   109.347654
	   22 B(4,7,10)       =    109.501062     0.000634     1.385572   110.886634
	   23 B(5,7,6)        =    109.469614     0.000010    -0.238277   109.231337
	   24 B(5,7,10)       =    109.437654    -0.000212    -0.457155   108.980499
	   25 B(6,7,10)       =    109.459295    -0.000192    -0.397085   109.062210
	   26 B(7,10,8)       =    109.452301    -0.000208    -0.434229   109.018072
	   27 B(7,10,9)       =    109.482155    -0.000211    -0.463517   109.018638
	   28 B(7,10,14)      =    109.504437     0.000641     1.401162   110.905599
	   29 B(8,10,9)       =    109.458846     0.000008    -0.248025   109.210821
	   30 B(8,10,14)      =    109.478806    -0.000125    -0.163237   109.315569
	   31 B(9,10,14)      =    109.450772    -0.000106    -0.103089   109.347683
	   32 B(10,14,11)     =    109.472959     0.000160     0.386266   109.859225
	   33 B(10,14,12)     =    109.517206     0.000116     0.250781   109.767987
	   34 B(10,14,13)     =    109.523654     0.000409     1.013171   110.536825
	   35 B(11,14,12)     =    109.454822    -0.000181    -0.484987   108.969835
	   36 B(11,14,13)     =    109.424442    -0.000252    -0.565945   108.858497
	   37 B(12,14,13)     =    109.434175    -0.000252    -0.618362   108.815813
	   38 D(1,4,7,5)      =    179.965873     0.000009     0.127581   180.093454
	   39 D(1,4,7,6)      =    -60.025575    -0.000022    -0.347739   -60.373315
	   40 D(1,4,7,10)     =     60.013132    -0.000005    -0.089762    59.923370
	   41 D(2,4,7,5)      =    -60.028143     0.000015     0.232384   -59.795759
	   42 D(2,4,7,6)      =     59.980409    -0.000016    -0.242937    59.737472
	   43 D(2,4,7,10)     =   -179.980883     0.000001     0.015040  -179.965843
	   44 D(3,4,7,5)      =     59.933911     0.000021     0.336783    60.270694
	   45 D(3,4,7,6)      =    179.942463    -0.000010    -0.138537   179.803925
	   46 D(3,4,7,10)     =    -60.018830     0.000007     0.119440   -59.899390
	   47 D(4,7,10,8)     =    -60.009777     0.000030     0.449954   -59.559823
	   48 D(4,7,10,9)     =     59.970178    -0.000027    -0.389904    59.580274
	   49 D(4,7,10,14)    =    179.972182     0.000004     0.058124   180.030305
	   50 D(5,7,10,8)     =   -179.958653     0.000001     0.033531  -179.925121
	   51 D(5,7,10,9)     =    -59.978698    -0.000055    -0.806326   -60.785024
	   52 D(5,7,10,14)    =     60.023306    -0.000024    -0.358299    59.665007
	   53 D(6,7,10,8)     =     60.071149     0.000055     0.835313    60.906461
	   54 D(6,7,10,9)     =   -179.948896    -0.000001    -0.004545  -179.953442
	   55 D(6,7,10,14)    =    -59.946893     0.000029     0.443482   -59.503410
	   56 D(7,10,14,11)   =     70.001412    -0.000013    -0.221834    69.779577
	   57 D(7,10,14,12)   =    -50.007741    -0.000001    -0.019436   -50.027177
	   58 D(7,10,14,13)   =   -170.022707    -0.000004    -0.045313  -170.068021
	   59 D(8,10,14,11)   =    -50.000410    -0.000027    -0.453077   -50.453487
	   60 D(8,10,14,12)   =   -170.009563    -0.000015    -0.250679  -170.260242
	   61 D(8,10,14,13)   =     69.975471    -0.000018    -0.276556    69.698915
	   62 D(9,10,14,11)   =   -169.977381     0.000003     0.011494  -169.965886
	   63 D(9,10,14,12)   =     70.013467     0.000015     0.213892    70.227359
	   64 D(9,10,14,13)   =    -50.001500     0.000012     0.188015   -49.813484
	 ---------------------------------------------------------------------------
	Successfully symmetrized geometry.
	 Forces used to impose fixed constraints are not included.
	  Forces zeroed: 58 

  ==> Convergence Check <==

  Measures of convergence in internal coordinates in au.
  Criteria marked as inactive (o), active & met (*), and active & unmet ( ).
  --------------------------------------------------------------------------------------------- ~
   Step     Total Energy     Delta E     MAX Force     RMS Force      MAX Disp      RMS Disp    ~
  --------------------------------------------------------------------------------------------- ~
    Convergence Criteria    1.00e-06 *    3.00e-04 *             o    1.20e-03 *             o  ~
  --------------------------------------------------------------------------------------------- ~
      1    -158.15654525   -1.58e+02      1.31e-02      5.59e-03 o    2.51e-02      1.25e-02 o  ~
  ---------------------------------------------------------------------------------------------

	Writing optimization data to binary file.
	Structure for next step:
	Cartesian Geometry (in Angstrom)
	    H    -2.3300442380   0.0588165692   0.3185762642
	    H    -2.1864469915   1.6988108506  -0.3065506686
	    H    -1.8870316553   0.3246989334  -1.3658110898
	    C    -1.7767007538   0.6980014904  -0.3565028692
	    H     0.2518105052   1.3480101409  -0.6451589399
	    H    -0.1910652074   1.0829292907   1.0436744047
	    C    -0.2943502376   0.7050476379   0.0339701721
	    H    -0.2524139077  -1.3484011401   0.6435467288
	    H     0.1912199030  -1.0814800661  -1.0442959643
	    C     0.2941096957  -0.7046760522  -0.0343147935
	    H     1.8768099733  -0.4935388454   1.4145914576
	    H     2.2989403092   0.0679698903  -0.2006302075
	    H     2.2303883627  -1.6571872488   0.1416191534
	    C     1.7766668913  -0.6982443913   0.3569078222
			--------------------------
			 OPTKING Finished Execution 
			--------------------------

    Structure for next step:
    Molecular point group: c1
    Full point group: C1

    Geometry (in Angstrom), charge = 0, multiplicity = 1:

    H           -2.330025145812     0.058779076505     0.318571414081
    H           -2.186427899336     1.698773357909    -0.306555518645
    H           -1.887012563076     0.324661440679    -1.365815939898
    C           -1.776681661588     0.697963997714    -0.356507719248
    H            0.251829597389     1.347972648183    -0.645163789983
    H           -0.191046115242     1.082891797995     1.043669554643
    C           -0.294331145398     0.705010145227     0.033965322044
    H           -0.252394815553    -1.348438632821     0.643541878743
    H            0.191238995158    -1.081517558795    -1.044300814372
    C            0.294128787930    -0.704713544872    -0.034319643614
    H            1.876829065507    -0.493576338057     1.414586607535
    H            2.298959401433     0.067932397624    -0.200635057610
    H            2.230407454867    -1.657224741495     0.141614303345
    C            1.776685983509    -0.698281883982     0.356902972133

gradient() will perform analytic gradient computation.

*** tstart() called on gpu-2-10.local
*** at Wed Jun 14 15:01:05 2017

    SCF Algorithm Type (re)set to DF.

*** tstart() called on gpu-2-10.local
*** at Wed Jun 14 15:01:05 2017

   => Loading Basis Set <=

    Name: AUG-CC-PVTZ
    Role: ORBITAL
    Keyword: BASIS
    atoms 1-3, 5-6, 8-9, 11-13 entry H          line    34 file /cbio/jclab/home/chayas/anaconda/envs/py35/share/psi4/basis/aug-cc-pvtz.gbs 
    atoms 4, 7, 10, 14         entry C          line   221 file /cbio/jclab/home/chayas/anaconda/envs/py35/share/psi4/basis/aug-cc-pvtz.gbs 


         ---------------------------------------------------------
                                   SCF
            by Justin Turney, Rob Parrish, and Andy Simmonett
                              RHF Reference
                        1 Threads,    953 MiB Core
         ---------------------------------------------------------

  ==> Geometry <==

    Molecular point group: c1
    Full point group: C1

    Geometry (in Angstrom), charge = 0, multiplicity = 1:

       Center              X                  Y                   Z               Mass       
    ------------   -----------------  -----------------  -----------------  -----------------
           H         -2.330025145812     0.058779076505     0.318571414081     1.007825032070
           H         -2.186427899336     1.698773357909    -0.306555518645     1.007825032070
           H         -1.887012563076     0.324661440679    -1.365815939898     1.007825032070
           C         -1.776681661588     0.697963997714    -0.356507719248    12.000000000000
           H          0.251829597389     1.347972648183    -0.645163789983     1.007825032070
           H         -0.191046115242     1.082891797995     1.043669554643     1.007825032070
           C         -0.294331145398     0.705010145227     0.033965322044    12.000000000000
           H         -0.252394815553    -1.348438632821     0.643541878743     1.007825032070
           H          0.191238995158    -1.081517558795    -1.044300814372     1.007825032070
           C          0.294128787930    -0.704713544872    -0.034319643614    12.000000000000
           H          1.876829065507    -0.493576338057     1.414586607535     1.007825032070
           H          2.298959401433     0.067932397624    -0.200635057610     1.007825032070
           H          2.230407454867    -1.657224741495     0.141614303345     1.007825032070
           C          1.776685983509    -0.698281883982     0.356902972133    12.000000000000

  Running in c1 symmetry.

  Rotational constants: A =      0.77657  B =      0.12366  C =      0.11587 [cm^-1]
  Rotational constants: A =  23280.84311  B =   3707.30771  C =   3473.67891 [MHz]
  Nuclear repulsion =  131.459885011984056

  Charge       = 0
  Multiplicity = 1
  Electrons    = 34
  Nalpha       = 17
  Nbeta        = 17

  ==> Algorithm <==

  SCF Algorithm Type is DF.
  DIIS enabled.
  MOM disabled.
  Fractional occupation disabled.
  Guess Type is READ.
  Energy threshold   = 1.00e-10
  Density threshold  = 1.00e-10
  Integral threshold = 0.00e+00

  ==> Primary Basis <==

  Basis Set: AUG-CC-PVTZ
    Blend: AUG-CC-PVTZ
    Number of shells: 146
    Number of basis function: 414
    Number of Cartesian functions: 470
    Spherical Harmonics?: true
    Max angular momentum: 3

   => Loading Basis Set <=

    Name: (AUG-CC-PVTZ AUX)
    Role: JKFIT
    Keyword: DF_BASIS_SCF
    atoms 1-3, 5-6, 8-9, 11-13 entry H          line    69 file /cbio/jclab/home/chayas/anaconda/envs/py35/share/psi4/basis/aug-cc-pvtz-jkfit.gbs 
    atoms 4, 7, 10, 14         entry C          line   161 file /cbio/jclab/home/chayas/anaconda/envs/py35/share/psi4/basis/aug-cc-pvtz-jkfit.gbs 

  Reading orbitals from file 180, no projection.

  ==> Pre-Iterations <==

   -------------------------------------------------------
    Irrep   Nso     Nmo     Nalpha   Nbeta   Ndocc  Nsocc
   -------------------------------------------------------
     A        414     414       0       0       0       0
   -------------------------------------------------------
    Total     414     414      17      17      17       0
   -------------------------------------------------------

  ==> Integral Setup <==

  ==> DFJK: Density-Fitted J/K Matrices <==

    J tasked:                  Yes
    K tasked:                  Yes
    wK tasked:                  No
    OpenMP threads:              1
    Integrals threads:           1
    Memory (MB):               715
    Algorithm:                Core
    Integral Cache:           NONE
    Schwarz Cutoff:          1E-12
    Fitting Condition:       1E-12

   => Auxiliary Basis Set <=

  Basis Set: (AUG-CC-PVTZ AUX)
    Blend: AUG-CC-PVTZ-JKFIT
    Number of shells: 260
    Number of basis function: 876
    Number of Cartesian functions: 1074
    Spherical Harmonics?: true
    Max angular momentum: 4

  Minimum eigenvalue in the overlap matrix is 8.2323616009E-06.
  Using Symmetric Orthogonalization.

  SCF Guess: Orbitals guess was supplied from a previous computation.

  ==> Iterations <==

                           Total Energy        Delta E     RMS |[F,P]|

   @DF-RHF iter   0:  -157.27817831239403   -1.57278e+02   1.25776e-04 
   @DF-RHF iter   1:  -157.35475334155649   -7.65750e-02   5.19741e-05 
   @DF-RHF iter   2:  -157.35502922589208   -2.75884e-04   2.69054e-05 DIIS
   @DF-RHF iter   3:  -157.35508783967816   -5.86138e-05   2.87996e-06 DIIS
   @DF-RHF iter   4:  -157.35508929665559   -1.45698e-06   7.71028e-07 DIIS
   @DF-RHF iter   5:  -157.35508938452494   -8.78694e-08   2.56068e-07 DIIS
   @DF-RHF iter   6:  -157.35508939443292   -9.90798e-09   4.17143e-08 DIIS
   @DF-RHF iter   7:  -157.35508939482304   -3.90116e-10   5.96489e-09 DIIS
   @DF-RHF iter   8:  -157.35508939483128   -8.24230e-12   1.00410e-09 DIIS
   @DF-RHF iter   9:  -157.35508939483114    1.42109e-13   2.23221e-10 DIIS
   @DF-RHF iter  10:  -157.35508939483145   -3.12639e-13   4.74551e-11 DIIS

  ==> Post-Iterations <==

    Orbital Energies (a.u.)
    -----------------------

    Doubly Occupied:                                                      

       1A    -11.210319     2A    -11.209696     3A    -11.203833  
       4A    -11.203777     5A     -1.071395     6A     -0.979991  
       7A     -0.859936     8A     -0.789119     9A     -0.645436  
      10A     -0.584956    11A     -0.572126    12A     -0.571925  
      13A     -0.512835    14A     -0.499752    15A     -0.470211  
      16A     -0.465439    17A     -0.449347  

    Virtual:                                                              

      18A      0.032277    19A      0.036925    20A      0.039683  
      21A      0.040909    22A      0.056578    23A      0.058483  
      24A      0.059594    25A      0.061344    26A      0.081873  
      27A      0.085010    28A      0.096701    29A      0.112292  
      30A      0.123155    31A      0.130774    32A      0.135475  
      33A      0.141678    34A      0.143759    35A      0.146786  
      36A      0.148203    37A      0.159562    38A      0.159724  
      39A      0.168189    40A      0.170547    41A      0.202303  
      42A      0.210301    43A      0.211615    44A      0.229224  
      45A      0.248351    46A      0.249602    47A      0.250481  
      48A      0.269012    49A      0.273105    50A      0.281041  
      51A      0.281916    52A      0.316251    53A      0.318570  
      54A      0.331184    55A      0.337282    56A      0.339330  
      57A      0.347457    58A      0.356865    59A      0.357388  
      60A      0.359105    61A      0.373445    62A      0.373990  
      63A      0.384245    64A      0.388164    65A      0.390281  
      66A      0.391736    67A      0.395300    68A      0.402119  
      69A      0.406665    70A      0.413607    71A      0.424141  
      72A      0.429232    73A      0.442746    74A      0.445866  
      75A      0.453999    76A      0.459754    77A      0.463687  
      78A      0.467512    79A      0.473775    80A      0.475740  
      81A      0.483599    82A      0.490027    83A      0.497823  
      84A      0.505399    85A      0.505648    86A      0.510241  
      87A      0.522453    88A      0.526321    89A      0.528360  
      90A      0.537336    91A      0.547091    92A      0.563294  
      93A      0.565191    94A      0.574996    95A      0.587170  
      96A      0.595884    97A      0.598965    98A      0.612566  
      99A      0.625061   100A      0.635117   101A      0.639486  
     102A      0.655792   103A      0.682035   104A      0.688297  
     105A      0.702625   106A      0.703431   107A      0.764089  
     108A      0.777851   109A      0.796305   110A      0.815669  
     111A      0.823063   112A      0.826905   113A      0.836678  
     114A      0.842560   115A      0.845564   116A      0.857249  
     117A      0.861566   118A      0.863795   119A      0.885195  
     120A      0.889954   121A      0.896306   122A      0.900305  
     123A      0.908038   124A      0.919574   125A      0.922032  
     126A      0.931426   127A      0.938154   128A      0.943578  
     129A      0.948936   130A      0.957985   131A      0.963871  
     132A      0.967195   133A      0.982542   134A      0.989466  
     135A      0.995416   136A      1.008091   137A      1.011459  
     138A      1.030282   139A      1.047530   140A      1.055679  
     141A      1.069631   142A      1.077721   143A      1.094665  
     144A      1.102972   145A      1.109168   146A      1.125208  
     147A      1.128894   148A      1.132154   149A      1.137461  
     150A      1.158300   151A      1.162325   152A      1.166070  
     153A      1.170269   154A      1.194409   155A      1.201245  
     156A      1.213802   157A      1.222806   158A      1.241264  
     159A      1.250591   160A      1.252568   161A      1.257313  
     162A      1.262321   163A      1.272038   164A      1.277660  
     165A      1.286113   166A      1.300979   167A      1.309994  
     168A      1.327013   169A      1.338239   170A      1.351779  
     171A      1.357849   172A      1.372417   173A      1.393375  
     174A      1.424878   175A      1.429131   176A      1.435084  
     177A      1.458891   178A      1.482642   179A      1.494395  
     180A      1.499370   181A      1.526553   182A      1.531124  
     183A      1.549207   184A      1.556799   185A      1.573819  
     186A      1.583623   187A      1.594618   188A      1.613881  
     189A      1.625972   190A      1.633352   191A      1.641361  
     192A      1.643453   193A      1.681545   194A      1.685549  
     195A      1.698910   196A      1.699823   197A      1.708118  
     198A      1.711142   199A      1.733848   200A      1.741076  
     201A      1.747881   202A      1.758532   203A      1.760404  
     204A      1.774785   205A      1.780488   206A      1.785445  
     207A      1.791667   208A      1.797652   209A      1.826168  
     210A      1.847561   211A      1.858839   212A      1.867780  
     213A      1.885108   214A      1.894564   215A      1.917191  
     216A      1.920719   217A      1.959303   218A      1.970421  
     219A      1.973959   220A      1.981316   221A      1.988123  
     222A      1.992138   223A      2.026849   224A      2.043223  
     225A      2.054620   226A      2.065526   227A      2.093677  
     228A      2.100578   229A      2.138963   230A      2.146142  
     231A      2.155166   232A      2.177543   233A      2.188989  
     234A      2.209345   235A      2.241455   236A      2.251501  
     237A      2.254436   238A      2.285116   239A      2.299701  
     240A      2.311403   241A      2.324113   242A      2.327358  
     243A      2.331900   244A      2.342349   245A      2.373396  
     246A      2.379803   247A      2.430578   248A      2.452249  
     249A      2.472807   250A      2.474717   251A      2.506179  
     252A      2.537115   253A      2.605397   254A      2.613313  
     255A      2.651325   256A      2.677306   257A      2.702034  
     258A      2.897440   259A      2.910831   260A      3.026812  
     261A      3.240086   262A      3.253187   263A      3.267657  
     264A      3.388725   265A      3.409051   266A      3.426649  
     267A      3.456007   268A      3.465436   269A      3.474775  
     270A      3.482286   271A      3.516514   272A      3.533366  
     273A      3.571662   274A      3.579671   275A      3.593962  
     276A      3.602812   277A      3.632729   278A      3.658101  
     279A      3.684545   280A      3.684759   281A      3.717727  
     282A      3.723282   283A      3.730227   284A      3.739474  
     285A      3.749864   286A      3.761139   287A      3.789803  
     288A      3.792107   289A      3.809344   290A      3.816132  
     291A      3.847019   292A      3.856549   293A      3.878623  
     294A      3.886685   295A      3.911760   296A      3.916715  
     297A      3.927251   298A      3.939148   299A      3.964255  
     300A      3.991878   301A      3.997778   302A      4.001469  
     303A      4.014345   304A      4.018968   305A      4.040018  
     306A      4.049419   307A      4.057726   308A      4.063581  
     309A      4.133624   310A      4.179210   311A      4.201679  
     312A      4.210865   313A      4.219031   314A      4.231581  
     315A      4.239745   316A      4.260908   317A      4.269131  
     318A      4.280083   319A      4.292993   320A      4.311692  
     321A      4.340202   322A      4.359454   323A      4.361039  
     324A      4.397739   325A      4.411604   326A      4.418600  
     327A      4.525411   328A      4.535586   329A      4.564665  
     330A      4.580281   331A      4.624398   332A      4.647711  
     333A      4.672117   334A      4.691726   335A      4.709949  
     336A      4.724081   337A      4.725628   338A      4.744141  
     339A      4.756910   340A      4.781081   341A      4.790491  
     342A      4.834904   343A      4.854379   344A      4.867589  
     345A      4.873007   346A      4.887851   347A      4.909806  
     348A      4.937982   349A      4.951613   350A      4.991702  
     351A      5.031608   352A      5.046158   353A      5.051901  
     354A      5.077873   355A      5.111855   356A      5.163497  
     357A      5.177563   358A      5.192500   359A      5.201824  
     360A      5.221004   361A      5.235021   362A      5.243605  
     363A      5.248174   364A      5.273696   365A      5.292971  
     366A      5.342341   367A      5.383509   368A      5.395351  
     369A      5.412005   370A      5.419869   371A      5.436503  
     372A      5.451612   373A      5.462642   374A      5.479117  
     375A      5.546312   376A      5.568078   377A      5.595164  
     378A      5.609144   379A      5.657385   380A      5.674356  
     381A      5.695770   382A      5.730709   383A      5.732826  
     384A      5.759231   385A      5.817207   386A      5.826966  
     387A      5.864365   388A      5.890015   389A      5.913812  
     390A      6.002097   391A      6.049116   392A      6.111074  
     393A      6.130475   394A      6.150757   395A      6.218471  
     396A      6.223494   397A      6.238135   398A      6.256942  
     399A      6.272744   400A      6.328460   401A      6.383784  
     402A      6.388189   403A      6.544313   404A      6.551034  
     405A      6.739734   406A      6.778215   407A      6.821936  
     408A      6.836880   409A      6.858361   410A      6.987636  
     411A     17.927955   412A     18.192269   413A     18.255742  
     414A     18.846699  

    Final Occupation by Irrep:
              A 
    DOCC [    17 ]

  Energy converged.

  @DF-RHF Final Energy:  -157.35508939483145

   => Energetics <=

    Nuclear Repulsion Energy =            131.4598850119840563
    One-Electron Energy =                -471.0297627632737658
    Two-Electron Energy =                 182.2147883564582571
    DFT Exchange-Correlation Energy =       0.0000000000000000
    Empirical Dispersion Energy =           0.0000000000000000
    PCM Polarization Energy =               0.0000000000000000
    EFP Energy =                            0.0000000000000000
    Total Energy =                       -157.3550893948314524



Properties will be evaluated at   0.000000,   0.000000,   0.000000 Bohr

Properties computed using the SCF density matrix

  Nuclear Dipole Moment: (a.u.)
     X:     0.0022      Y:     0.0002      Z:    -0.0005

  Electronic Dipole Moment: (a.u.)
     X:    -0.0025      Y:    -0.0004      Z:     0.0010

  Dipole Moment: (a.u.)
     X:    -0.0003      Y:    -0.0001      Z:     0.0006     Total:     0.0007

  Dipole Moment: (Debye)
     X:    -0.0007      Y:    -0.0003      Z:     0.0015     Total:     0.0017


*** tstop() called on gpu-2-10.local at Wed Jun 14 15:02:28 2017
Module time:
	user time   =      82.23 seconds =       1.37 minutes
	system time =       0.45 seconds =       0.01 minutes
	total time  =         83 seconds =       1.38 minutes
Total time:
	user time   =     534.42 seconds =       8.91 minutes
	system time =       3.91 seconds =       0.07 minutes
	total time  =        538 seconds =       8.97 minutes

  //>>>>>>>>>>>>>>>>>>>>>>>>>>>>>>>>>>>//
  //               DFMP2               //
  //<<<<<<<<<<<<<<<<<<<<<<<<<<<<<<<<<<<//

   => Loading Basis Set <=

    Name: (AUG-CC-PVTZ AUX)
    Role: RIFIT
    Keyword: DF_BASIS_MP2
    atoms 1-3, 5-6, 8-9, 11-13 entry H          line    29 file /cbio/jclab/home/chayas/anaconda/envs/py35/share/psi4/basis/aug-cc-pvtz-ri.gbs 
    atoms 4, 7, 10, 14         entry C          line   147 file /cbio/jclab/home/chayas/anaconda/envs/py35/share/psi4/basis/aug-cc-pvtz-ri.gbs 

	 --------------------------------------------------------
	                          DF-MP2                         
	      2nd-Order Density-Fitted Moller-Plesset Theory     
	              RMP2 Wavefunction,   1 Threads             
	                                                         
	        Rob Parrish, Justin Turney, Andy Simmonett,      
	           Ed Hohenstein, and C. David Sherrill          
	 --------------------------------------------------------

   => Auxiliary Basis Set <=

  Basis Set: (AUG-CC-PVTZ AUX)
    Blend: AUG-CC-PVTZ-RI
    Number of shells: 252
    Number of basis function: 884
    Number of Cartesian functions: 1094
    Spherical Harmonics?: true
    Max angular momentum: 4

	 --------------------------------------------------------
	                 NBF =   414, NAUX =   884
	 --------------------------------------------------------
	   CLASS    FOCC     OCC    AOCC    AVIR     VIR    FVIR
	   PAIRS       0      17      17     397     397       0
	 --------------------------------------------------------


         ------------------------------------------------------------
                                     CPHF                           
                                  Rob Parrish                       
         ------------------------------------------------------------

  ==> Geometry <==

    Molecular point group: c1
    Full point group: C1

    Geometry (in Angstrom), charge = 0, multiplicity = 1:

       Center              X                  Y                   Z               Mass       
    ------------   -----------------  -----------------  -----------------  -----------------
           H         -2.330025145812     0.058779076505     0.318571414081     1.007825032070
           H         -2.186427899336     1.698773357909    -0.306555518645     1.007825032070
           H         -1.887012563076     0.324661440679    -1.365815939898     1.007825032070
           C         -1.776681661588     0.697963997714    -0.356507719248    12.000000000000
           H          0.251829597389     1.347972648183    -0.645163789983     1.007825032070
           H         -0.191046115242     1.082891797995     1.043669554643     1.007825032070
           C         -0.294331145398     0.705010145227     0.033965322044    12.000000000000
           H         -0.252394815553    -1.348438632821     0.643541878743     1.007825032070
           H          0.191238995158    -1.081517558795    -1.044300814372     1.007825032070
           C          0.294128787930    -0.704713544872    -0.034319643614    12.000000000000
           H          1.876829065507    -0.493576338057     1.414586607535     1.007825032070
           H          2.298959401433     0.067932397624    -0.200635057610     1.007825032070
           H          2.230407454867    -1.657224741495     0.141614303345     1.007825032070
           C          1.776685983509    -0.698281883982     0.356902972133    12.000000000000

  Nuclear repulsion =  131.459885011984056
  Reference energy  = -157.355089394831452

  ==> Basis Set <==

  Basis Set: AUG-CC-PVTZ
    Blend: AUG-CC-PVTZ
    Number of shells: 146
    Number of basis function: 414
    Number of Cartesian functions: 470
    Spherical Harmonics?: true
    Max angular momentum: 3

  ==> CGRSolver (by Rob Parrish) <==

   Number of roots    =         1
   Preconditioning    =    JACOBI
   Convergence cutoff =     1E-06
   Maximum iterations =       100

  ==> CPHFRHamiltonian (by Rob Parrish) <== 

  ==> DFJK: Density-Fitted J/K Matrices <==

    J tasked:                  Yes
    K tasked:                  Yes
    wK tasked:                  No
    OpenMP threads:              1
    Integrals threads:           1
    Memory (MB):               715
    Algorithm:                Core
    Integral Cache:           NONE
    Schwarz Cutoff:          1E-12
    Fitting Condition:       1E-12

   => Auxiliary Basis Set <=

  Basis Set: (AUG-CC-PVTZ AUX)
    Blend: AUG-CC-PVTZ-JKFIT
    Number of shells: 260
    Number of basis function: 876
    Number of Cartesian functions: 1074
    Spherical Harmonics?: true
    Max angular momentum: 4

  ==> CPHF Iterations <==

  => Iterations <=

             Iter  Converged  Remaining    Residual
  CGR           1          0          1   8.307E-02
  CGR           2          0          1   1.322E-02
  CGR           3          0          1   3.487E-03
  CGR           4          0          1   8.136E-04
  CGR           5          0          1   1.197E-04
  CGR           6          0          1   2.164E-05
  CGR           7          0          1   3.711E-06
  CGR           8          1          0   8.229E-07

    CGRSolver converged.

  ==> DFCorrGrad: Density-Fitted Correlated Gradients <==

    OpenMP threads:              1
    Integrals threads:           1
    Memory (MB):               715
    Schwarz Cutoff:          0E+00
    Fitting Condition:       1E-12

   => Auxiliary Basis Set <=

  Basis Set: (AUG-CC-PVTZ AUX)
    Blend: AUG-CC-PVTZ-JKFIT
    Number of shells: 260
    Number of basis function: 876
    Number of Cartesian functions: 1074
    Spherical Harmonics?: true
    Max angular momentum: 4

	-----------------------------------------------------------
	 ==================> DF-MP2 Energies <==================== 
	-----------------------------------------------------------
	 Reference Energy          =    -157.3550893948314524 [Eh]
	 Singles Energy            =      -0.0000000000000000 [Eh]
	 Same-Spin Energy          =      -0.1653422744955609 [Eh]
	 Opposite-Spin Energy      =      -0.6391373730471576 [Eh]
	 Correlation Energy        =      -0.8044796475427185 [Eh]
	 Total Energy              =    -158.1595690423741587 [Eh]
	-----------------------------------------------------------
	 ================> DF-SCS-MP2 Energies <================== 
	-----------------------------------------------------------
	 SCS Same-Spin Scale       =       0.3333333333333333 [-]
	 SCS Opposite-Spin Scale   =       1.2000000000000000 [-]
	 SCS Same-Spin Energy      =      -0.0551140914985203 [Eh]
	 SCS Opposite-Spin Energy  =      -0.7669648476565890 [Eh]
	 SCS Correlation Energy    =      -0.8220789391551093 [Eh]
	 SCS Total Energy          =    -158.1771683339865717 [Eh]
	-----------------------------------------------------------


  -Total Gradient:
     Atom            X                  Y                   Z
    ------   -----------------  -----------------  -----------------
       1        0.003415634484     0.002088915204    -0.001246116214
       2        0.003272045148    -0.002149610522     0.000494118487
       3        0.002168736955     0.001455053696     0.003349935195
       4       -0.013433274617    -0.003704121034    -0.004332001944
       5       -0.003296888802    -0.003785966606     0.000376346952
       6       -0.002479564926    -0.003504826729    -0.003067970038
       7        0.012716584488     0.015724664278     0.005278207496
       8        0.003359138965     0.004287955821    -0.000045133465
       9        0.002458674370     0.002955155520     0.003237969956
      10       -0.012472071767    -0.015705651578    -0.005290879709
      11       -0.002213226070    -0.001395943509    -0.003165185795
      12       -0.003338024152    -0.002106847277     0.001313173635
      13       -0.003191300711     0.002300014623    -0.000744604233
      14        0.013033536634     0.003541208112     0.003842139678


*** tstop() called on gpu-2-10.local at Wed Jun 14 15:07:11 2017
Module time:
	user time   =     362.97 seconds =       6.05 minutes
	system time =       3.04 seconds =       0.05 minutes
	total time  =        366 seconds =       6.10 minutes
Total time:
	user time   =     815.16 seconds =      13.59 minutes
	system time =       6.50 seconds =       0.11 minutes
	total time  =        821 seconds =      13.68 minutes

			-----------------------------------------
			 OPTKING 2.0: for geometry optimizations 
			  - R.A. King,  Bethel University        
			-----------------------------------------

	Previous internal coordinate definitions found.
	---Fragment 1 Geometry and Gradient---
	 H          -4.4031094083        0.1110763569        0.6020127264
	 H          -4.1317499390        3.2102164083       -0.5793059748
	 H          -3.5659369535        0.6135212088       -2.5810180743
	 C          -3.3574417657        1.3189608063       -0.6737019536
	 H           0.4758889712        2.5472991397       -1.2191828739
	 H          -0.3610248366        2.0463689298        1.9722496315
	 C          -0.5562052572        1.3322760954        0.0641851567
	 H          -0.4769570788       -2.5481797230        1.2161179059
	 H           0.3613893268       -2.0437719940       -1.9734425395
	 C           0.5558228570       -1.3317156019       -0.0648547274
	 H           3.5466929320       -0.9327241046        2.6731812795
	 H           4.3444036593        0.1283736271       -0.3791453115
	 H           4.2148592544       -3.1317009021        0.2676122498
	 C           3.3574499330       -1.3195615243        0.6744488733
	             0.0034156345        0.0020889152       -0.0012461162
	             0.0032720451       -0.0021496105        0.0004941185
	             0.0021687370        0.0014550537        0.0033499352
	            -0.0134332746       -0.0037041210       -0.0043320019
	            -0.0032968888       -0.0037859666        0.0003763470
	            -0.0024795649       -0.0035048267       -0.0030679700
	             0.0127165845        0.0157246643        0.0052782075
	             0.0033591390        0.0042879558       -0.0000451335
	             0.0024586744        0.0029551555        0.0032379700
	            -0.0124720718       -0.0157056516       -0.0052908797
	            -0.0022132261       -0.0013959435       -0.0031651858
	            -0.0033380242       -0.0021068473        0.0013131736
	            -0.0031913007        0.0023000146       -0.0007446042
	             0.0130335366        0.0035412081        0.0038421397

	---Fragment 1 Intrafragment Coordinates---
	 - Coordinate -           - BOHR/RAD -       - ANG/DEG -
	 R(1,4)           =         2.044469	       1.081886
	 R(2,4)           =         2.045803	       1.082593
	 R(3,4)           =         2.044253	       1.081772
	 R(4,7)           =         2.896823	       1.532932
	 R(5,7)           =         2.046591	       1.083009
	 R(6,7)           =         2.046640	       1.083035
	 R(7,10)          =         2.889656	       1.529140
	 R(8,10)          =         2.046292	       1.082851
	 R(9,10)          =         2.046347	       1.082880
	 R(10,14)         =         2.897556	       1.533321
	 R(11,14)         =         2.044600	       1.081955
	 R(12,14)         =         2.044665	       1.081990
	 R(13,14)         =         2.045609	       1.082490
	 B(1,4,2)         =         1.900541	     108.892990
	 B(1,4,3)         =         1.903017	     109.034824
	 B(1,4,7)         =         1.915968	     109.776858
	 B(2,4,3)         =         1.900184	     108.872520
	 B(2,4,7)         =         1.928362	     110.486994
	 B(3,4,7)         =         1.915451	     109.747259
	 B(4,7,5)         =         1.907796	     109.308672
	 B(4,7,6)         =         1.908477	     109.347654
	 B(4,7,10)        =         1.935337	     110.886634
	 B(5,7,6)         =         1.906446	     109.231337
	 B(5,7,10)        =         1.902069	     108.980499
	 B(6,7,10)        =         1.903495	     109.062210
	 B(7,10,8)        =         1.902724	     109.018072
	 B(7,10,9)        =         1.902734	     109.018638
	 B(7,10,14)       =         1.935668	     110.905599
	 B(8,10,9)        =         1.906088	     109.210821
	 B(8,10,14)       =         1.907917	     109.315569
	 B(9,10,14)       =         1.908477	     109.347683
	 B(10,14,11)      =         1.917405	     109.859225
	 B(10,14,12)      =         1.915813	     109.767987
	 B(10,14,13)      =         1.929232	     110.536825
	 B(11,14,12)      =         1.901882	     108.969835
	 B(11,14,13)      =         1.899939	     108.858497
	 B(12,14,13)      =         1.899194	     108.815813
	 D(1,4,7,5)       =        -3.139962	    -179.906546
	 D(1,4,7,6)       =        -1.053713	     -60.373315
	 D(1,4,7,10)      =         1.045860	      59.923370
	 D(2,4,7,5)       =        -1.043633	     -59.795759
	 D(2,4,7,6)       =         1.042616	      59.737472
	 D(2,4,7,10)      =        -3.140997	    -179.965843
	 D(3,4,7,5)       =         1.051922	      60.270694
	 D(3,4,7,6)       =         3.138171	     179.803925
	 D(3,4,7,10)      =        -1.045442	     -59.899390
	 D(4,7,10,8)      =        -1.039515	     -59.559823
	 D(4,7,10,9)      =         1.039872	      59.580274
	 D(4,7,10,14)     =        -3.141064	    -179.969695
	 D(5,7,10,8)      =        -3.140286	    -179.925121
	 D(5,7,10,9)      =        -1.060899	     -60.785024
	 D(5,7,10,14)     =         1.041351	      59.665007
	 D(6,7,10,8)      =         1.063018	      60.906461
	 D(6,7,10,9)      =        -3.140780	    -179.953442
	 D(6,7,10,14)     =        -1.038530	     -59.503410
	 D(7,10,14,11)    =         1.217883	      69.779577
	 D(7,10,14,12)    =        -0.873139	     -50.027177
	 D(7,10,14,13)    =        -2.968247	    -170.068021
	 D(8,10,14,11)    =        -0.880579	     -50.453487
	 D(8,10,14,12)    =        -2.971602	    -170.260242
	 D(8,10,14,13)    =         1.216476	      69.698915
	 D(9,10,14,11)    =        -2.966464	    -169.965886
	 D(9,10,14,12)    =         1.225699	      70.227359
	 D(9,10,14,13)    =        -0.869409	     -49.813484

	Current energy   :      -158.1595690424

	Energy change for the previous step:
		Projected    :        -0.0040105475
		Actual       :        -0.0030237884

	Performing BFGS update.
	Previous computed or guess Hessian on step 1.
	Steps to be used in Hessian update: 1
	Adding user-defined constraint: Fragment 1; Coordinate 58:
		Value =    -2.968247; Fixed value    =    -2.967060
		Force =     0.000623; Force constant =     0.525000
	Removing off-diagonal coupling between coordinate 58 and others.
	Taking RFO optimization step.
	Going to follow RFO solution 1.
	Using RFO vector 1.

	Determining step-restricting scale parameter for RS-RFO.
	Maximum step size allowed    0.10000

	 Iter      |step|        alpha        rfo_root  
	------------------------------------------------
	    0     0.15875       1.00000           1
	    1     0.13143       6.24229           1
	    2     0.10987      16.01110           1
	    3     0.10141      22.29776           1
	    4     0.10004      23.51266           1
	    5     0.10000      23.54502           1
	------------------------------------------------
	Norm of target step-size    0.10000
	Projected energy change by RFO approximation:        -0.0018094756

	Back-transformation to cartesian coordinates...
	Successfully converged to displaced geometry.

	--- Internal Coordinate Step in ANG or DEG, aJ/ANG or AJ/DEG ---
	 ---------------------------------------------------------------------------
	   Coordinate                Previous        Force       Change         New 
	   ----------                --------       ------       ------       ------
	    1 R(1,4)          =      1.081886     0.030967     0.005816     1.087702
	    2 R(2,4)          =      1.082593     0.026387     0.004738     1.087331
	    3 R(3,4)          =      1.081772     0.031710     0.005950     1.087722
	    4 R(4,7)          =      1.532932    -0.040190    -0.010916     1.522017
	    5 R(5,7)          =      1.083009     0.034160     0.006500     1.089509
	    6 R(6,7)          =      1.083035     0.035588     0.006752     1.089787
	    7 R(7,10)         =      1.529140    -0.039336    -0.009881     1.519259
	    8 R(8,10)         =      1.082851     0.035202     0.006675     1.089526
	    9 R(9,10)         =      1.082880     0.035277     0.006684     1.089564
	   10 R(10,14)        =      1.533321    -0.036881    -0.010177     1.523144
	   11 R(11,14)        =      1.081955     0.029356     0.005490     1.087445
	   12 R(12,14)        =      1.081990     0.031141     0.005888     1.087878
	   13 R(13,14)        =      1.082490     0.026587     0.004772     1.087262
	   14 B(1,4,2)        =    108.892990    -0.000156    -0.681474   108.211516
	   15 B(1,4,3)        =    109.034824    -0.000152    -0.820786   108.214039
	   16 B(1,4,7)        =    109.776858     0.000128     0.624543   110.401401
	   17 B(2,4,3)        =    108.872520    -0.000151    -0.659731   108.212789
	   18 B(2,4,7)        =    110.486994     0.000202     0.873360   111.360354
	   19 B(3,4,7)        =    109.747259     0.000119     0.595189   110.342448
	   20 B(4,7,5)        =    109.308672    -0.000020     0.163088   109.471760
	   21 B(4,7,6)        =    109.347654    -0.000032     0.106081   109.453734
	   22 B(4,7,10)       =    110.886634     0.000265     1.120550   112.007184
	   23 B(5,7,6)        =    109.231337    -0.000078    -1.176814   108.054523
	   24 B(5,7,10)       =    108.980499    -0.000076    -0.171281   108.809218
	   25 B(6,7,10)       =    109.062210    -0.000064    -0.103398   108.958811
	   26 B(7,10,8)       =    109.018072    -0.000068    -0.075971   108.942100
	   27 B(7,10,9)       =    109.018638    -0.000078    -0.225301   108.793337
	   28 B(7,10,14)      =    110.905599     0.000267     1.126638   112.032237
	   29 B(8,10,9)       =    109.210821    -0.000080    -1.186319   108.024502
	   30 B(8,10,14)      =    109.315569    -0.000028     0.143618   109.459187
	   31 B(9,10,14)      =    109.347683    -0.000018     0.153820   109.501503
	   32 B(10,14,11)     =    109.859225     0.000137     0.700930   110.560155
	   33 B(10,14,12)     =    109.767987     0.000110     0.498560   110.266547
	   34 B(10,14,13)     =    110.536825     0.000199     0.853025   111.389850
	   35 B(11,14,12)     =    108.969835    -0.000151    -0.801559   108.168276
	   36 B(11,14,13)     =    108.858497    -0.000146    -0.541378   108.317120
	   37 B(12,14,13)     =    108.815813    -0.000159    -0.781149   108.034664
	   38 D(1,4,7,5)      =   -179.906546     0.000010     0.510224  -179.396321
	   39 D(1,4,7,6)      =    -60.373315    -0.000019    -0.760754   -61.134068
	   40 D(1,4,7,10)     =     59.923370    -0.000003    -0.100393    59.822977
	   41 D(2,4,7,5)      =    -59.795759     0.000014     0.630899   -59.164860
	   42 D(2,4,7,6)      =     59.737472    -0.000015    -0.640079    59.097393
	   43 D(2,4,7,10)     =   -179.965843     0.000001     0.020282  -179.945561
	   44 D(3,4,7,5)      =     60.270694     0.000018     0.758082    61.028777
	   45 D(3,4,7,6)      =    179.803925    -0.000011    -0.512896   179.291029
	   46 D(3,4,7,10)     =    -59.899390     0.000005     0.147465   -59.751925
[...]

  ==> CPHF Iterations <==

  => Iterations <=

             Iter  Converged  Remaining    Residual
  CGR           1          0          1   8.473E-02
  CGR           2          0          1   1.341E-02
  CGR           3          0          1   3.543E-03
  CGR           4          0          1   8.154E-04
  CGR           5          0          1   1.194E-04
  CGR           6          0          1   2.202E-05
  CGR           7          0          1   3.830E-06
  CGR           8          1          0   8.739E-07

    CGRSolver converged.

  ==> DFCorrGrad: Density-Fitted Correlated Gradients <==

    OpenMP threads:              1
    Integrals threads:           1
    Memory (MB):               715
    Schwarz Cutoff:          0E+00
    Fitting Condition:       1E-12

   => Auxiliary Basis Set <=

  Basis Set: (AUG-CC-PVTZ AUX)
    Blend: AUG-CC-PVTZ-JKFIT
    Number of shells: 260
    Number of basis function: 876
    Number of Cartesian functions: 1074
    Spherical Harmonics?: true
    Max angular momentum: 4

	-----------------------------------------------------------
	 ==================> DF-MP2 Energies <==================== 
	-----------------------------------------------------------
	 Reference Energy          =    -157.3561019448846992 [Eh]
	 Singles Energy            =      -0.0000000000000000 [Eh]
	 Same-Spin Energy          =      -0.1654611380423495 [Eh]
	 Opposite-Spin Energy      =      -0.6391960111951625 [Eh]
	 Correlation Energy        =      -0.8046571492375120 [Eh]
	 Total Energy              =    -158.1607590941221986 [Eh]
	-----------------------------------------------------------
	 ================> DF-SCS-MP2 Energies <================== 
	-----------------------------------------------------------
	 SCS Same-Spin Scale       =       0.3333333333333333 [-]
	 SCS Opposite-Spin Scale   =       1.2000000000000000 [-]
	 SCS Same-Spin Energy      =      -0.0551537126807832 [Eh]
	 SCS Opposite-Spin Energy  =      -0.7670352134341949 [Eh]
	 SCS Correlation Energy    =      -0.8221889261149781 [Eh]
	 SCS Total Energy          =    -158.1782908709996889 [Eh]
	-----------------------------------------------------------


  -Total Gradient:
     Atom            X                  Y                   Z
    ------   -----------------  -----------------  -----------------
       1       -0.000035518798    -0.000029842532     0.000028332150
       2       -0.000015334136     0.000042701960     0.000004958946
       3       -0.000021421924    -0.000016823559    -0.000050596277
       4        0.000134594320    -0.000032972205     0.000019254733
       5       -0.000001913263    -0.000010886848    -0.000011797826
       6       -0.000001521020    -0.000001579353     0.000039245712
       7        0.000278951065     0.000185782446    -0.001044613451
       8       -0.000021678274     0.000002135797     0.000054551981
       9        0.000006144594    -0.000006336388     0.000003478712
      10       -0.000270210087    -0.000103748427     0.001005547671
      11        0.000005524640    -0.000002719154     0.000066243580
      12        0.000024737843     0.000019056892     0.000001934309
      13        0.000389889311     0.000440265784    -0.001388444671
      14       -0.000472244272    -0.000485034411     0.001271904430


*** tstop() called on gpu-2-10.local at Wed Jun 14 15:21:22 2017
Module time:
	user time   =     281.24 seconds =       4.69 minutes
	system time =       2.72 seconds =       0.05 minutes
	total time  =        284 seconds =       4.73 minutes
Total time:
	user time   =    1656.87 seconds =      27.61 minutes
	system time =      14.98 seconds =       0.25 minutes
	total time  =       1672 seconds =      27.87 minutes

			-----------------------------------------
			 OPTKING 2.0: for geometry optimizations 
			  - R.A. King,  Bethel University        
			-----------------------------------------

	Previous internal coordinate definitions found.
	---Fragment 1 Geometry and Gradient---
	 H          -4.4339463965        0.1179311447        0.6198507300
	 H          -4.1573361087        3.2045458643       -0.5877759549
	 H          -3.6230205781        0.5859192483       -2.5676214175
	 C          -3.3566245109        1.3132013289       -0.6616953011
	 H           0.4644774236        2.5568470197       -1.2250179052
	 H          -0.3405585602        2.0773751627        1.9433788974
	 C          -0.5784621542        1.3105316733        0.0436151009
	 H          -0.4833468965       -2.5788840471        1.1555399589
	 H           0.3851129745       -2.0369980348       -1.9849100621
	 C           0.5836468386       -1.3066897125       -0.0667117632
	 H           3.5724454833       -0.9078116765        2.6896396767
	 H           4.3855538558        0.1183171507       -0.3627705165
	 H           4.2393012948       -3.1282702437        0.2922643091
	 C           3.3507106237       -1.3177967722        0.6870950355
	            -0.0000355188       -0.0000298425        0.0000283321
	            -0.0000153341        0.0000427020        0.0000049589
	            -0.0000214219       -0.0000168236       -0.0000505963
	             0.0001345943       -0.0000329722        0.0000192547
	            -0.0000019133       -0.0000108868       -0.0000117978
	            -0.0000015210       -0.0000015794        0.0000392457
	             0.0002789511        0.0001857824       -0.0010446135
	            -0.0000216783        0.0000021358        0.0000545520
	             0.0000061446       -0.0000063364        0.0000034787
	            -0.0002702101       -0.0001037484        0.0010055477
	             0.0000055246       -0.0000027192        0.0000662436
	             0.0000247378        0.0000190569        0.0000019343
	             0.0003898893        0.0004402658       -0.0013884447
	            -0.0004722443       -0.0004850344        0.0012719044

	---Fragment 1 Intrafragment Coordinates---
	 - Coordinate -           - BOHR/RAD -       - ANG/DEG -
	 R(1,4)           =         2.057098	       1.088570
	 R(2,4)           =         2.055185	       1.087557
	 R(3,4)           =         2.057294	       1.088673
	 R(4,7)           =         2.866297	       1.516779
	 R(5,7)           =         2.061663	       1.090985
	 R(6,7)           =         2.062462	       1.091408
	 R(7,10)          =         2.865749	       1.516489
	 R(8,10)          =         2.061760	       1.091036
	 R(9,10)          =         2.062099	       1.091216
	 R(10,14)         =         2.867924	       1.517640
	 R(11,14)         =         2.056074	       1.088027
	 R(12,14)         =         2.058043	       1.089070
	 R(13,14)         =         2.055067	       1.087494
	 B(1,4,2)         =         1.884179	     107.955484
	 B(1,4,3)         =         1.879609	     107.693661
	 B(1,4,7)         =         1.932391	     110.717858
	 B(2,4,3)         =         1.884100	     107.950963
	 B(2,4,7)         =         1.949410	     111.692950
	 B(3,4,7)         =         1.931725	     110.679678
	 B(4,7,5)         =         1.915946	     109.775593
	 B(4,7,6)         =         1.915710	     109.762079
	 B(4,7,10)        =         1.965381	     112.608046
	 B(5,7,6)         =         1.858431	     106.480228
	 B(5,7,10)        =         1.899973	     108.860415
	 B(6,7,10)        =         1.905247	     109.162625
	 B(7,10,8)        =         1.907997	     109.320184
	 B(7,10,9)        =         1.896751	     108.675852
	 B(7,10,14)       =         1.965650	     112.623460
	 B(8,10,9)        =         1.857816	     106.445005
	 B(8,10,14)       =         1.918893	     109.944456
	 B(9,10,14)       =         1.913483	     109.634495
	 B(10,14,11)      =         1.938289	     111.055768
	 B(10,14,12)      =         1.926617	     110.387049
	 B(10,14,13)      =         1.949910	     111.721614
	 B(11,14,12)      =         1.879135	     107.666519
	 B(11,14,13)      =         1.892478	     108.430988
	 B(12,14,13)      =         1.874783	     107.417138
	 D(1,4,7,5)       =        -3.114269	    -178.434482
	 D(1,4,7,6)       =        -1.077264	     -61.722673
	 D(1,4,7,10)      =         1.049114	      60.109786
	 D(2,4,7,5)       =        -1.013891	     -58.091655
	 D(2,4,7,6)       =         1.023115	      58.620154
	 D(2,4,7,10)      =        -3.133693	    -179.547387
	 D(3,4,7,5)       =         1.085933	      62.219403
	 D(3,4,7,6)       =         3.122939	     178.931212
	 D(3,4,7,10)      =        -1.033869	     -59.236329
	 D(4,7,10,8)      =        -0.984032	     -56.380899
	 D(4,7,10,9)      =         1.036987	      59.414984
	 D(4,7,10,14)     =        -3.122539	    -178.908285
	 D(5,7,10,8)      =        -3.112895	    -178.355770
	 D(5,7,10,9)      =        -1.091876	     -62.559887
	 D(5,7,10,14)     =         1.031784	      59.116843
	 D(6,7,10,8)      =         1.148262	      65.790543
	 D(6,7,10,9)      =        -3.113904	    -178.413574
	 D(6,7,10,14)     =        -0.990245	     -56.736843
	 D(7,10,14,11)    =         1.197590	      68.616851
	 D(7,10,14,12)    =        -0.885289	     -50.723320
	 D(7,10,14,13)    =        -2.970232	    -170.181759
	 D(8,10,14,11)    =        -0.934780	     -53.558974
	 D(8,10,14,12)    =        -3.017659	    -172.899145
	 D(8,10,14,13)    =         1.180583	      67.642416
	 D(9,10,14,11)    =        -2.971456	    -170.251873
	 D(9,10,14,12)    =         1.228851	      70.407956
	 D(9,10,14,13)    =        -0.856092	     -49.050483

	Current energy   :      -158.1607590941

	Energy change for the previous step:
		Projected    :         0.0000287253
		Actual       :        -0.0000063185

	Performing BFGS update.
	Previous computed or guess Hessian on step 1.
	Steps to be used in Hessian update: 4 3
	Adding user-defined constraint: Fragment 1; Coordinate 58:
		Value =    -2.970232; Fixed value    =    -2.967060
		Force =     0.001903; Force constant =     0.600000
	Removing off-diagonal coupling between coordinate 58 and others.
	Taking RFO optimization step.
	Going to follow RFO solution 1.
	Using RFO vector 1.
	Norm of target step-size    0.00327
	Projected energy change by RFO approximation:        -0.0000004277

	Back-transformation to cartesian coordinates...
	Successfully converged to displaced geometry.

	--- Internal Coordinate Step in ANG or DEG, aJ/ANG or AJ/DEG ---
	 ---------------------------------------------------------------------------
	   Coordinate                Previous        Force       Change         New 
	   ----------                --------       ------       ------       ------
	    1 R(1,4)          =      1.088570    -0.000442    -0.000087     1.088482
	    2 R(2,4)          =      1.087557    -0.000374    -0.000074     1.087483
	    3 R(3,4)          =      1.088673    -0.000458    -0.000090     1.088583
	    4 R(4,7)          =      1.516779     0.000502     0.000126     1.516905
	    5 R(5,7)          =      1.090985     0.000002    -0.000008     1.090977
	    6 R(6,7)          =      1.091408    -0.000292    -0.000059     1.091349
	    7 R(7,10)         =      1.516489     0.000425     0.000099     1.516588
	    8 R(8,10)         =      1.091036    -0.000348    -0.000071     1.090966
	    9 R(9,10)         =      1.091216     0.000013    -0.000004     1.091211
	   10 R(10,14)        =      1.517640     0.000518     0.000127     1.517767
	   11 R(11,14)        =      1.088027    -0.000532    -0.000104     1.087923
	   12 R(12,14)        =      1.089070    -0.000204    -0.000043     1.089026
	   13 R(13,14)        =      1.087494    -0.000391    -0.000077     1.087417
	   14 B(1,4,2)        =    107.955484     0.000000     0.004011   107.959495
	   15 B(1,4,3)        =    107.693661     0.000001     0.003730   107.697391
	   16 B(1,4,7)        =    110.717858    -0.000001    -0.005174   110.712684
	   17 B(2,4,3)        =    107.950963     0.000000     0.003215   107.954178
	   18 B(2,4,7)        =    111.692950     0.000001     0.004092   111.697042
	   19 B(3,4,7)        =    110.679678    -0.000002    -0.009369   110.670309
	   20 B(4,7,5)        =    109.775593    -0.000001    -0.001082   109.774511
	   21 B(4,7,6)        =    109.762079    -0.000001    -0.003783   109.758296
	   22 B(4,7,10)       =    112.608046     0.000004     0.015045   112.623091
	   23 B(5,7,6)        =    106.480228    -0.000000    -0.011859   106.468369
	   24 B(5,7,10)       =    108.860415    -0.000001    -0.001205   108.859209
	   25 B(6,7,10)       =    109.162625    -0.000001     0.001396   109.164020
	   26 B(7,10,8)       =    109.320184     0.000001     0.017824   109.338008
	   27 B(7,10,9)       =    108.675852    -0.000002    -0.017334   108.658519
	   28 B(7,10,14)      =    112.623460     0.000002     0.010734   112.634194
	   29 B(8,10,9)       =    106.445005    -0.000000    -0.012323   106.432683
	   30 B(8,10,14)      =    109.944456    -0.000001     0.007088   109.951544
	   31 B(9,10,14)      =    109.634495    -0.000000    -0.007556   109.626939
	   32 B(10,14,11)     =    111.055768     0.000001     0.005082   111.060850
	   33 B(10,14,12)     =    110.387049    -0.000003    -0.018465   110.368584
	   34 B(10,14,13)     =    111.721614     0.000001     0.007319   111.728933
	   35 B(11,14,12)     =    107.666519     0.000001     0.000353   107.666872
	   36 B(11,14,13)     =    108.430988     0.000001     0.013275   108.444264
	   37 B(12,14,13)     =    107.417138    -0.000001    -0.007744   107.409393
	   38 D(1,4,7,5)      =   -178.434482     0.000000     0.031377  -178.403105
	   39 D(1,4,7,6)      =    -61.722673    -0.000000     0.014166   -61.708507
	   40 D(1,4,7,10)     =     60.109786    -0.000000     0.023507    60.133293
	   41 D(2,4,7,5)      =    -58.091655     0.000000     0.035680   -58.055975
	   42 D(2,4,7,6)      =     58.620154    -0.000000     0.018468    58.638622
	   43 D(2,4,7,10)     =   -179.547387     0.000000     0.027810  -179.519577
	   44 D(3,4,7,5)      =     62.219403     0.000000     0.036111    62.255515
	   45 D(3,4,7,6)      =    178.931212    -0.000000     0.018900   178.950112
	   46 D(3,4,7,10)     =    -59.236329     0.000000     0.028241   -59.208088
	   47 D(4,7,10,8)     =    -56.380899     0.000000     0.054072   -56.326827
	   48 D(4,7,10,9)     =     59.414984     0.000000     0.039516    59.454500
	   49 D(4,7,10,14)    =   -178.908285    -0.000000     0.024872  -178.883413
	   50 D(5,7,10,8)     =   -178.355770     0.000000     0.046323  -178.309447
	   51 D(5,7,10,9)     =    -62.559887    -0.000000     0.031767   -62.528120
	   52 D(5,7,10,14)    =     59.116843    -0.000000     0.017124    59.133967
	   53 D(6,7,10,8)     =     65.790543     0.000000     0.060360    65.850903
	   54 D(6,7,10,9)     =   -178.413574     0.000000     0.045804  -178.367770
	   55 D(6,7,10,14)    =    -56.736843    -0.000000     0.031160   -56.705683
	   56 D(7,10,14,11)   =     68.616851     0.000000    -0.020829    68.596022
	   57 D(7,10,14,12)   =    -50.723320     0.000000    -0.012525   -50.735845
	   58 D(7,10,14,13)   =   -170.181759     0.000001     0.004773  -170.176986
	   59 D(8,10,14,11)   =    -53.558974    -0.000000    -0.056268   -53.615242
	   60 D(8,10,14,12)   =   -172.899145    -0.000000    -0.047964  -172.947109
	   61 D(8,10,14,13)   =     67.642416     0.000000    -0.030666    67.611750
	   62 D(9,10,14,11)   =   -170.251873    -0.000000    -0.041027  -170.292900
	   63 D(9,10,14,12)   =     70.407956    -0.000000    -0.032722    70.375233
	   64 D(9,10,14,13)   =    -49.050483     0.000000    -0.015425   -49.065907
	 ---------------------------------------------------------------------------
	Successfully symmetrized geometry.
	 Forces used to impose fixed constraints are not included.
	  Forces zeroed: 58 

  ==> Convergence Check <==

  Measures of convergence in internal coordinates in au.
  Criteria marked as inactive (o), active & met (*), and active & unmet ( ).
  ---------------------------------------------------------------------------------------------
   Step     Total Energy     Delta E     MAX Force     RMS Force      MAX Disp      RMS Disp   
  ---------------------------------------------------------------------------------------------
    Convergence Criteria    1.00e-06 *    3.00e-04 *             o    1.20e-03 *             o
  ---------------------------------------------------------------------------------------------
      5    -158.16075909   -6.32e-06      6.46e-05 *    2.53e-05 o    1.05e-03 *    4.09e-04 o  ~
  ---------------------------------------------------------------------------------------------


  **** Optimization is complete! (in 5 steps) ****

  ==> Optimization Summary <==

  Measures of convergence in internal coordinates in au.
  --------------------------------------------------------------------------------------------------------------- ~
   Step         Total Energy             Delta E       MAX Force       RMS Force        MAX Disp        RMS Disp  ~
  --------------------------------------------------------------------------------------------------------------- ~
      1    -158.156545253978   -158.156545253978      0.01308323      0.00559113      0.02508490      0.01250557  ~
      2    -158.159569042374     -0.003023788396      0.00487815      0.00223939      0.02959820      0.01252260  ~
      3    -158.160559197523     -0.000990155148      0.00150376      0.00059031      0.04596247      0.01251746  ~
      4    -158.160752775655     -0.000193578132      0.00054278      0.00014831      0.00968263      0.00305332  ~
      5    -158.160759094122     -0.000006318467      0.00006457      0.00002599      0.00105348      0.00040889  ~
  --------------------------------------------------------------------------------------------------------------- ~

	Writing optimization data to binary file.
	Final energy is   -158.1607590941222
	Final (previous) structure:
	Cartesian Geometry (in Angstrom)
	    H    -2.3463433771   0.0624064739   0.3280108790
	    H    -2.1999675172   1.6957726353  -0.3110376391
	    H    -1.9172199162   0.3100551123  -1.3587267344
	    C    -1.7762491889   0.6949162135  -0.3501540724
	    H     0.2457908665   1.3530251687  -0.6482515556
	    H    -0.1802158283   1.0992995898   1.0283918201
	    C    -0.3061089880   0.6935034926   0.0230801173
	    H    -0.2557761614  -1.3646866613   0.6114854099
	    H     0.2037930088  -1.0779329339  -1.0503691660
	    C     0.3088526048  -0.6914704146  -0.0353023446
	    H     1.8904567287  -0.4803932489   1.4232960162
	    H     2.3207351475   0.0626107395  -0.1919698893
	    H     2.2433416255  -1.6554093153   0.1546596112
	    C     1.7731196947  -0.6973480174   0.3635950329
	Saving final (previous) structure.
			--------------------------
			 OPTKING Finished Execution 
			--------------------------

    Final optimized geometry and variables:
    Molecular point group: c1
    Full point group: C1

    Geometry (in Angstrom), charge = 0, multiplicity = 1:

    H           -2.346343377125     0.062406473937     0.328010879041
    H           -2.199967517168     1.695772635272    -0.311037639088
    H           -1.917219916170     0.310055112281    -1.358726734416
    C           -1.776249188942     0.694916213538    -0.350154072399
    H            0.245790866483     1.353025168692    -0.648251555553
    H           -0.180215828264     1.099299589797     1.028391820136
    C           -0.306108988028     0.693503492634     0.023080117324
    H           -0.255776161450    -1.364686661307     0.611485409872
    H            0.203793008845    -1.077932933946    -1.050369165973
    C            0.308852604844    -0.691470414578    -0.035302344645
    H            1.890456728667    -0.480393248912     1.423296016246
    H            2.320735147537     0.062610739539    -0.191969889257
    H            2.243341625548    -1.655409315297     0.154659611245
    C            1.773119694659    -0.697348017416     0.363595032946

	Cleaning optimization helper files.

*** Psi4 exiting successfully. Buy a developer a beer!
