
    -----------------------------------------------------------------------
          Psi4: An Open-Source Ab Initio Electronic Structure Package
                               Psi4 1.1 release

                         Git: Rev {HEAD} add49b9 


    R. M. Parrish, L. A. Burns, D. G. A. Smith, A. C. Simmonett,
    A. E. DePrince III, E. G. Hohenstein, U. Bozkaya, A. Yu. Sokolov,
    R. Di Remigio, R. M. Richard, J. F. Gonthier, A. M. James,
    H. R. McAlexander, A. Kumar, M. Saitow, X. Wang, B. P. Pritchard,
    P. Verma, H. F. Schaefer III, K. Patkowski, R. A. King, E. F. Valeev,
    F. A. Evangelista, J. M. Turney, T. D. Crawford, and C. D. Sherrill,
    J. Chem. Theory Comput. in press (2017).
    (doi: 10.1021/acs.jctc.7b00174)

    -----------------------------------------------------------------------


    Psi4 started on: Wednesday, 14 June 2017 02:22PM

    Process ID:  26599
    PSIDATADIR: /cbio/jclab/home/chayas/anaconda/envs/py35/share/psi4
    Memory:     500.0 MiB
    Threads:    1
    
  ==> Input File <==

--------------------------------------------------------------------------

memory 1000 mb

molecule butane {
  symmetry C1
  0 1 
  H      2.627   1.284   -10.432
  H      2.941   2.921   -9.907
  H      4.244   1.937   -10.529
  C      3.339   1.928   -9.960
  H      4.344   2.061   -8.066
  H      2.726   1.408   -7.967
  C      3.631   1.416   -8.537
  H      3.665   -0.647   -7.940
  H      4.104   -0.384   -9.610
  C      4.203   -0.012   -8.612
  H      6.088   -0.983   -8.270
  H      5.791   0.381   -7.220
  H      6.230   0.644   -8.890
  C      5.691   0.009   -8.218
  units Angstrom
}

dih_string = "14 10 7 4 110"
set optking fixed_dihedral = $dih_string

optimize('MP2/aug-cc-pvtz')
--------------------------------------------------------------------------

  Memory set to 953.674 MiB by Python driver.
gradient() will perform analytic gradient computation.

*** tstart() called on cpu-6-2.local
*** at Wed Jun 14 14:22:04 2017

    SCF Algorithm Type (re)set to DF.

*** tstart() called on cpu-6-2.local
*** at Wed Jun 14 14:22:04 2017

   => Loading Basis Set <=

    Name: AUG-CC-PVTZ
    Role: ORBITAL
    Keyword: BASIS
    atoms 1-3, 5-6, 8-9, 11-13 entry H          line    34 file /cbio/jclab/home/chayas/anaconda/envs/py35/share/psi4/basis/aug-cc-pvtz.gbs 
    atoms 4, 7, 10, 14         entry C          line   221 file /cbio/jclab/home/chayas/anaconda/envs/py35/share/psi4/basis/aug-cc-pvtz.gbs 


         ---------------------------------------------------------
                                   SCF
            by Justin Turney, Rob Parrish, and Andy Simmonett
                              RHF Reference
                        1 Threads,    953 MiB Core
         ---------------------------------------------------------

  ==> Geometry <==

    Molecular point group: c1
    Full point group: C1

    Geometry (in Angstrom), charge = 0, multiplicity = 1:

       Center              X                  Y                   Z               Mass       
    ------------   -----------------  -----------------  -----------------  -----------------
           H         -1.599411729277     0.444073398266    -1.591339295027     1.007825032070
           H         -1.285411729277     2.081073398266    -1.066339295027     1.007825032070
           H          0.017588270723     1.097073398266    -1.688339295027     1.007825032070
           C         -0.887411729277     1.088073398266    -1.119339295027    12.000000000000
           H          0.117588270723     1.221073398266     0.774660704973     1.007825032070
           H         -1.500411729277     0.568073398266     0.873660704973     1.007825032070
           C         -0.595411729277     0.576073398266     0.303660704973    12.000000000000
           H         -0.561411729277    -1.486926601734     0.900660704973     1.007825032070
           H         -0.122411729277    -1.223926601734    -0.769339295027     1.007825032070
           C         -0.023411729277    -0.851926601734     0.228660704973    12.000000000000
           H          1.861588270723    -1.822926601734     0.570660704973     1.007825032070
           H          1.564588270723    -0.458926601734     1.620660704973     1.007825032070
           H          2.003588270723    -0.195926601734    -0.049339295027     1.007825032070
           C          1.464588270723    -0.830926601734     0.622660704973    12.000000000000

  Running in c1 symmetry.

  Rotational constants: A =      0.55071  B =      0.13661  C =      0.13338 [cm^-1]
  Rotational constants: A =  16509.98002  B =   4095.42919  C =   3998.60006 [MHz]
  Nuclear repulsion =  132.840469323981495

  Charge       = 0
  Multiplicity = 1
  Electrons    = 34
  Nalpha       = 17
  Nbeta        = 17

  ==> Algorithm <==

  SCF Algorithm Type is DF.
  DIIS enabled.
  MOM disabled.
  Fractional occupation disabled.
  Guess Type is SAD.
  Energy threshold   = 1.00e-10
  Density threshold  = 1.00e-10
  Integral threshold = 0.00e+00

  ==> Primary Basis <==

  Basis Set: AUG-CC-PVTZ
    Blend: AUG-CC-PVTZ
    Number of shells: 146
    Number of basis function: 414
    Number of Cartesian functions: 470
    Spherical Harmonics?: true
    Max angular momentum: 3

   => Loading Basis Set <=

    Name: (AUG-CC-PVTZ AUX)
    Role: JKFIT
    Keyword: DF_BASIS_SCF
    atoms 1-3, 5-6, 8-9, 11-13 entry H          line    69 file /cbio/jclab/home/chayas/anaconda/envs/py35/share/psi4/basis/aug-cc-pvtz-jkfit.gbs 
    atoms 4, 7, 10, 14         entry C          line   161 file /cbio/jclab/home/chayas/anaconda/envs/py35/share/psi4/basis/aug-cc-pvtz-jkfit.gbs 

  ==> Pre-Iterations <==

   -------------------------------------------------------
    Irrep   Nso     Nmo     Nalpha   Nbeta   Ndocc  Nsocc
   -------------------------------------------------------
     A        414     414       0       0       0       0
   -------------------------------------------------------
    Total     414     414      17      17      17       0
   -------------------------------------------------------

  ==> Integral Setup <==

  ==> DFJK: Density-Fitted J/K Matrices <==

    J tasked:                  Yes
    K tasked:                  Yes
    wK tasked:                  No
    OpenMP threads:              1
    Integrals threads:           1
    Memory (MB):               715
    Algorithm:                Core
    Integral Cache:           NONE
    Schwarz Cutoff:          1E-12
    Fitting Condition:       1E-12

   => Auxiliary Basis Set <=

  Basis Set: (AUG-CC-PVTZ AUX)
    Blend: AUG-CC-PVTZ-JKFIT
    Number of shells: 260
    Number of basis function: 876
    Number of Cartesian functions: 1074
    Spherical Harmonics?: true
    Max angular momentum: 4

  Minimum eigenvalue in the overlap matrix is 7.6784695282E-06.
  Using Symmetric Orthogonalization.

  SCF Guess: Superposition of Atomic Densities via on-the-fly atomic UHF.

  ==> Iterations <==

                           Total Energy        Delta E     RMS |[F,P]|

   @DF-RHF iter   0:  -159.10290994306138   -1.59103e+02   9.66240e-03 
   @DF-RHF iter   1:  -157.24328488560204    1.85963e+00   8.82985e-04 
   @DF-RHF iter   2:  -157.33526575215291   -9.19809e-02   2.91951e-04 DIIS
   @DF-RHF iter   3:  -157.34522243851708   -9.95669e-03   1.13500e-04 DIIS
   @DF-RHF iter   4:  -157.34698310450329   -1.76067e-03   1.89013e-05 DIIS
   @DF-RHF iter   5:  -157.34705652967438   -7.34252e-05   4.11383e-06 DIIS
   @DF-RHF iter   6:  -157.34706017113814   -3.64146e-06   1.11436e-06 DIIS
   @DF-RHF iter   7:  -157.34706035766101   -1.86523e-07   2.72350e-07 DIIS
   @DF-RHF iter   8:  -157.34706037153464   -1.38736e-08   5.48010e-08 DIIS
   @DF-RHF iter   9:  -157.34706037223191   -6.97270e-10   1.37689e-08 DIIS
   @DF-RHF iter  10:  -157.34706037227608   -4.41673e-11   3.75701e-09 DIIS
   @DF-RHF iter  11:  -157.34706037227889   -2.81375e-12   1.19806e-09 DIIS
   @DF-RHF iter  12:  -157.34706037227843    4.54747e-13   2.58537e-10 DIIS
   @DF-RHF iter  13:  -157.34706037227849   -5.68434e-14   5.76820e-11 DIIS

  ==> Post-Iterations <==

    Orbital Energies (a.u.)
    -----------------------

    Doubly Occupied:                                                      

       1A    -11.205325     2A    -11.204723     3A    -11.200020  
       4A    -11.199918     5A     -1.071697     6A     -0.979458  
       7A     -0.866388     8A     -0.792078     9A     -0.635886  
      10A     -0.610297    11A     -0.582992    12A     -0.550655  
      13A     -0.518241    14A     -0.509426    15A     -0.471885  
      16A     -0.461064    17A     -0.443717  

    Virtual:                                                              

      18A      0.032017    19A      0.037697    20A      0.039857  
      21A      0.040486    22A      0.056737    23A      0.059190  
      24A      0.060363    25A      0.062714    26A      0.070027  
      27A      0.084398    28A      0.110477    29A      0.120601  
      30A      0.121448    31A      0.127339    32A      0.129296  
      33A      0.133875    34A      0.140853    35A      0.142737  
      36A      0.151363    37A      0.152184    38A      0.158071  
      39A      0.165142    40A      0.178154    41A      0.196250  
      42A      0.207380    43A      0.212487    44A      0.231937  
      45A      0.238714    46A      0.250340    47A      0.260402  
      48A      0.275736    49A      0.280118    50A      0.293681  
      51A      0.301516    52A      0.308262    53A      0.314992  
      54A      0.319386    55A      0.329766    56A      0.335567  
      57A      0.346965    58A      0.354991    59A      0.356418  
      60A      0.362347    61A      0.367210    62A      0.373638  
      63A      0.383242    64A      0.383265    65A      0.388475  
      66A      0.394848    67A      0.403390    68A      0.404382  
      69A      0.414666    70A      0.425163    71A      0.427788  
      72A      0.437479    73A      0.441660    74A      0.448562  
      75A      0.452902    76A      0.459177    77A      0.459628  
      78A      0.467351    79A      0.475655    80A      0.478855  
      81A      0.479443    82A      0.496556    83A      0.502108  
      84A      0.506117    85A      0.524191    86A      0.526556  
      87A      0.527327    88A      0.540112    89A      0.550169  
      90A      0.555893    91A      0.558695    92A      0.560755  
      93A      0.578341    94A      0.579562    95A      0.585093  
      96A      0.593382    97A      0.605869    98A      0.611806  
      99A      0.616528   100A      0.623562   101A      0.630870  
     102A      0.643019   103A      0.657363   104A      0.664159  
     105A      0.679101   106A      0.718392   107A      0.751995  
     108A      0.778369   109A      0.793172   110A      0.820050  
     111A      0.825380   112A      0.833441   113A      0.834917  
     114A      0.839340   115A      0.843730   116A      0.858492  
     117A      0.872260   118A      0.873052   119A      0.875984  
     120A      0.881583   121A      0.897789   122A      0.909542  
     123A      0.915886   124A      0.917596   125A      0.926950  
     126A      0.934204   127A      0.937320   128A      0.942645  
     129A      0.949722   130A      0.963005   131A      0.968499  
     132A      0.973891   133A      0.984626   134A      0.990255  
     135A      1.000497   136A      1.013921   137A      1.039116  
     138A      1.039785   139A      1.050090   140A      1.055383  
     141A      1.075091   142A      1.086506   143A      1.097291  
     144A      1.105860   145A      1.118070   146A      1.118476  
     147A      1.129365   148A      1.136686   149A      1.153031  
     150A      1.158969   151A      1.159934   152A      1.175615  
     153A      1.182483   154A      1.194288   155A      1.210209  
     156A      1.217480   157A      1.219818   158A      1.238703  
     159A      1.254023   160A      1.260414   161A      1.263656  
     162A      1.273054   163A      1.275325   164A      1.295938  
     165A      1.298984   166A      1.315878   167A      1.326079  
     168A      1.329714   169A      1.355838   170A      1.377697  
     171A      1.386696   172A      1.409012   173A      1.423009  
     174A      1.449779   175A      1.458626   176A      1.458813  
     177A      1.464991   178A      1.477310   179A      1.496009  
     180A      1.503747   181A      1.509431   182A      1.529061  
     183A      1.545526   184A      1.561859   185A      1.576851  
     186A      1.585653   187A      1.590002   188A      1.612459  
     189A      1.619643   190A      1.632165   191A      1.666763  
     192A      1.667450   193A      1.670031   194A      1.688107  
     195A      1.696960   196A      1.705957   197A      1.720220  
     198A      1.725472   199A      1.728472   200A      1.739567  
     201A      1.745287   202A      1.760341   203A      1.761047  
     204A      1.776943   205A      1.790607   206A      1.807929  
     207A      1.810949   208A      1.818812   209A      1.832390  
     210A      1.840613   211A      1.869235   212A      1.877948  
     213A      1.891308   214A      1.905599   215A      1.922227  
     216A      1.931831   217A      1.945768   218A      1.980263  
     219A      1.984908   220A      2.010855   221A      2.017159  
     222A      2.031392   223A      2.041048   224A      2.061427  
     225A      2.066027   226A      2.072546   227A      2.087756  
     228A      2.095421   229A      2.109088   230A      2.114384  
     231A      2.176484   232A      2.186738   233A      2.188079  
     234A      2.222497   235A      2.242859   236A      2.252541  
     237A      2.258914   238A      2.276143   239A      2.288610  
     240A      2.306336   241A      2.318556   242A      2.340806  
     243A      2.354221   244A      2.374762   245A      2.395625  
     246A      2.396283   247A      2.454049   248A      2.465864  
     249A      2.480557   250A      2.513460   251A      2.545018  
     252A      2.560170   253A      2.574907   254A      2.583357  
     255A      2.598940   256A      2.664474   257A      2.835272  
     258A      2.863549   259A      2.996311   260A      3.008964  
     261A      3.224281   262A      3.242979   263A      3.306205  
     264A      3.334360   265A      3.357108   266A      3.432102  
     267A      3.441494   268A      3.472220   269A      3.486728  
     270A      3.514359   271A      3.557762   272A      3.562285  
     273A      3.571077   274A      3.579650   275A      3.580080  
     276A      3.641016   277A      3.642892   278A      3.673172  
     279A      3.686295   280A      3.686928   281A      3.702686  
     282A      3.706419   283A      3.723330   284A      3.732976  
     285A      3.769080   286A      3.780751   287A      3.796687  
     288A      3.812263   289A      3.818788   290A      3.821662  
     291A      3.832551   292A      3.845938   293A      3.860848  
     294A      3.885985   295A      3.940511   296A      3.945054  
     297A      3.965110   298A      3.977351   299A      3.998878  
     300A      4.003706   301A      4.012539   302A      4.016370  
     303A      4.025069   304A      4.028816   305A      4.068719  
     306A      4.081145   307A      4.095121   308A      4.099339  
     309A      4.137353   310A      4.145906   311A      4.177759  
     312A      4.182642   313A      4.193124   314A      4.243663  
     315A      4.256091   316A      4.276717   317A      4.297475  
     318A      4.315052   319A      4.336881   320A      4.343125  
     321A      4.350602   322A      4.372681   323A      4.410627  
     324A      4.411209   325A      4.442911   326A      4.465246  
     327A      4.495350   328A      4.530169   329A      4.566675  
     330A      4.620937   331A      4.650520   332A      4.681001  
     333A      4.686105   334A      4.707105   335A      4.708409  
     336A      4.731154   337A      4.733055   338A      4.753742  
     339A      4.803384   340A      4.841190   341A      4.846557  
     342A      4.851577   343A      4.875618   344A      4.878555  
     345A      4.904987   346A      4.923374   347A      4.949418  
     348A      4.954048   349A      4.986752   350A      5.020135  
     351A      5.027501   352A      5.047291   353A      5.054577  
     354A      5.100136   355A      5.104545   356A      5.167055  
     357A      5.175095   358A      5.196238   359A      5.242777  
     360A      5.253519   361A      5.290419   362A      5.301295  
     363A      5.305414   364A      5.331104   365A      5.336673  
     366A      5.351224   367A      5.376179   368A      5.384943  
     369A      5.404199   370A      5.472609   371A      5.475874  
     372A      5.511363   373A      5.522282   374A      5.528991  
     375A      5.571920   376A      5.592228   377A      5.603727  
     378A      5.656836   379A      5.681387   380A      5.685675  
     381A      5.743647   382A      5.744586   383A      5.782849  
     384A      5.804438   385A      5.851023   386A      5.874060  
     387A      5.914431   388A      5.915651   389A      5.973958  
     390A      6.027437   391A      6.076778   392A      6.133421  
     393A      6.153638   394A      6.201468   395A      6.236741  
     396A      6.280986   397A      6.292143   398A      6.312671  
     399A      6.320119   400A      6.411853   401A      6.414361  
     402A      6.483549   403A      6.551989   404A      6.604878  
     405A      6.781418   406A      6.785586   407A      6.846115  
     408A      6.859749   409A      6.948545   410A      6.957370  
     411A     18.067093   412A     18.423269   413A     18.724457  
     414A     19.953597  

    Final Occupation by Irrep:
              A 
    DOCC [    17 ]

  Energy converged.

  @DF-RHF Final Energy:  -157.34706037227849

   => Energetics <=

    Nuclear Repulsion Energy =            132.8404693239814947
    One-Electron Energy =                -473.7675187423241141
    Two-Electron Energy =                 183.5799890460641279
    DFT Exchange-Correlation Energy =       0.0000000000000000
    Empirical Dispersion Energy =           0.0000000000000000
    PCM Polarization Energy =               0.0000000000000000
    EFP Energy =                            0.0000000000000000
    Total Energy =                       -157.3470603722784915



Properties will be evaluated at   0.000000,   0.000000,   0.000000 Bohr

Properties computed using the SCF density matrix

  Nuclear Dipole Moment: (a.u.)
     X:     0.4649      Y:     0.2088      Z:    -0.3979

  Electronic Dipole Moment: (a.u.)
     X:    -0.4932      Y:    -0.2223      Z:     0.4223

  Dipole Moment: (a.u.)
     X:    -0.0284      Y:    -0.0135      Z:     0.0244     Total:     0.0398

  Dipole Moment: (Debye)
     X:    -0.0721      Y:    -0.0342      Z:     0.0621     Total:     0.1011


*** tstop() called on cpu-6-2.local at Wed Jun 14 14:23:24 2017
Module time:
	user time   =      80.23 seconds =       1.34 minutes
	system time =       0.54 seconds =       0.01 minutes
	total time  =         80 seconds =       1.33 minutes
Total time:
	user time   =      80.24 seconds =       1.34 minutes
	system time =       0.54 seconds =       0.01 minutes
	total time  =         80 seconds =       1.33 minutes

  //>>>>>>>>>>>>>>>>>>>>>>>>>>>>>>>>>>>//
  //               DFMP2               //
  //<<<<<<<<<<<<<<<<<<<<<<<<<<<<<<<<<<<//

   => Loading Basis Set <=

    Name: (AUG-CC-PVTZ AUX)
    Role: RIFIT
    Keyword: DF_BASIS_MP2
    atoms 1-3, 5-6, 8-9, 11-13 entry H          line    29 file /cbio/jclab/home/chayas/anaconda/envs/py35/share/psi4/basis/aug-cc-pvtz-ri.gbs 
    atoms 4, 7, 10, 14         entry C          line   147 file /cbio/jclab/home/chayas/anaconda/envs/py35/share/psi4/basis/aug-cc-pvtz-ri.gbs 

	 --------------------------------------------------------
	                          DF-MP2                         
	      2nd-Order Density-Fitted Moller-Plesset Theory     
	              RMP2 Wavefunction,   1 Threads             
	                                                         
	        Rob Parrish, Justin Turney, Andy Simmonett,      
	           Ed Hohenstein, and C. David Sherrill          
	 --------------------------------------------------------

   => Auxiliary Basis Set <=

  Basis Set: (AUG-CC-PVTZ AUX)
    Blend: AUG-CC-PVTZ-RI
    Number of shells: 252
    Number of basis function: 884
    Number of Cartesian functions: 1094
    Spherical Harmonics?: true
    Max angular momentum: 4

	 --------------------------------------------------------
	                 NBF =   414, NAUX =   884
	 --------------------------------------------------------
	   CLASS    FOCC     OCC    AOCC    AVIR     VIR    FVIR
	   PAIRS       0      17      17     397     397       0
	 --------------------------------------------------------


         ------------------------------------------------------------
                                     CPHF                           
                                  Rob Parrish                       
         ------------------------------------------------------------

  ==> Geometry <==

    Molecular point group: c1
    Full point group: C1

    Geometry (in Angstrom), charge = 0, multiplicity = 1:

       Center              X                  Y                   Z               Mass       
    ------------   -----------------  -----------------  -----------------  -----------------
           H         -1.599411729277     0.444073398266    -1.591339295027     1.007825032070
           H         -1.285411729277     2.081073398266    -1.066339295027     1.007825032070
           H          0.017588270723     1.097073398266    -1.688339295027     1.007825032070
           C         -0.887411729277     1.088073398266    -1.119339295027    12.000000000000
           H          0.117588270723     1.221073398266     0.774660704973     1.007825032070
           H         -1.500411729277     0.568073398266     0.873660704973     1.007825032070
           C         -0.595411729277     0.576073398266     0.303660704973    12.000000000000
           H         -0.561411729277    -1.486926601734     0.900660704973     1.007825032070
           H         -0.122411729277    -1.223926601734    -0.769339295027     1.007825032070
           C         -0.023411729277    -0.851926601734     0.228660704973    12.000000000000
           H          1.861588270723    -1.822926601734     0.570660704973     1.007825032070
           H          1.564588270723    -0.458926601734     1.620660704973     1.007825032070
           H          2.003588270723    -0.195926601734    -0.049339295027     1.007825032070
           C          1.464588270723    -0.830926601734     0.622660704973    12.000000000000

  Nuclear repulsion =  132.840469323981495
  Reference energy  = -157.347060372278492

  ==> Basis Set <==

  Basis Set: AUG-CC-PVTZ
    Blend: AUG-CC-PVTZ
    Number of shells: 146
    Number of basis function: 414
    Number of Cartesian functions: 470
    Spherical Harmonics?: true
    Max angular momentum: 3

  ==> CGRSolver (by Rob Parrish) <==

   Number of roots    =         1
   Preconditioning    =    JACOBI
   Convergence cutoff =     1E-06
   Maximum iterations =       100

  ==> CPHFRHamiltonian (by Rob Parrish) <== 

  ==> DFJK: Density-Fitted J/K Matrices <==

    J tasked:                  Yes
    K tasked:                  Yes
    wK tasked:                  No
    OpenMP threads:              1
    Integrals threads:           1
    Memory (MB):               715
    Algorithm:                Core
    Integral Cache:           NONE
    Schwarz Cutoff:          1E-12
    Fitting Condition:       1E-12

   => Auxiliary Basis Set <=

  Basis Set: (AUG-CC-PVTZ AUX)
    Blend: AUG-CC-PVTZ-JKFIT
    Number of shells: 260
    Number of basis function: 876
    Number of Cartesian functions: 1074
    Spherical Harmonics?: true
    Max angular momentum: 4

  ==> CPHF Iterations <==

  => Iterations <=

             Iter  Converged  Remaining    Residual
  CGR           1          0          1   8.333E-02
  CGR           2          0          1   1.345E-02
  CGR           3          0          1   3.335E-03
  CGR           4          0          1   8.354E-04
  CGR           5          0          1   1.638E-04
  CGR           6          0          1   3.325E-05
  CGR           7          0          1   6.604E-06
  CGR           8          0          1   1.398E-06
  CGR           9          1          0   2.095E-07

    CGRSolver converged.

  ==> DFCorrGrad: Density-Fitted Correlated Gradients <==

    OpenMP threads:              1
    Integrals threads:           1
    Memory (MB):               715
    Schwarz Cutoff:          0E+00
    Fitting Condition:       1E-12

   => Auxiliary Basis Set <=

  Basis Set: (AUG-CC-PVTZ AUX)
    Blend: AUG-CC-PVTZ-JKFIT
    Number of shells: 260
    Number of basis function: 876
    Number of Cartesian functions: 1074
    Spherical Harmonics?: true
    Max angular momentum: 4

	-----------------------------------------------------------
	 ==================> DF-MP2 Energies <==================== 
	-----------------------------------------------------------
	 Reference Energy          =    -157.3470603722784915 [Eh]
	 Singles Energy            =      -0.0000000000000001 [Eh]
	 Same-Spin Energy          =      -0.1656125227801918 [Eh]
	 Opposite-Spin Energy      =      -0.6396866033137797 [Eh]
	 Correlation Energy        =      -0.8052991260939716 [Eh]
	 Total Energy              =    -158.1523594983724763 [Eh]
	-----------------------------------------------------------
	 ================> DF-SCS-MP2 Energies <================== 
	-----------------------------------------------------------
	 SCS Same-Spin Scale       =       0.3333333333333333 [-]
	 SCS Opposite-Spin Scale   =       1.2000000000000000 [-]
	 SCS Same-Spin Energy      =      -0.0552041742600639 [Eh]
	 SCS Opposite-Spin Energy  =      -0.7676239239765356 [Eh]
	 SCS Correlation Energy    =      -0.8228280982365996 [Eh]
	 SCS Total Energy          =    -158.1698884705151045 [Eh]
	-----------------------------------------------------------


  -Total Gradient:
     Atom            X                  Y                   Z
    ------   -----------------  -----------------  -----------------
       1        0.007642790044     0.006058446907     0.006566394727
       2        0.004235393252    -0.010977826810     0.003910786046
       3       -0.009905762787    -0.000433632137     0.008423636720
       4       -0.001966129277     0.001336760515    -0.027370542732
       5       -0.005678544551    -0.008005348037    -0.007304402977
       6        0.010090881080    -0.003482582834    -0.007497512685
       7        0.001074693858     0.015014648743     0.029451547092
       8        0.005408196406     0.010319195796    -0.005756453120
       9        0.002681182176     0.006810222826     0.010597955925
      10       -0.018852045983    -0.023129327334    -0.014577327237
      11       -0.008719929561     0.010029303009    -0.000322601787
      12       -0.002775493385    -0.003859332433    -0.010792730499
      13       -0.007579288840    -0.007055683899     0.006505376847
      14        0.024344057570     0.007375155691     0.008165873678


*** tstop() called on cpu-6-2.local at Wed Jun 14 14:27:34 2017
Module time:
	user time   =     327.60 seconds =       5.46 minutes
	system time =       3.33 seconds =       0.06 minutes
	total time  =        330 seconds =       5.50 minutes
Total time:
	user time   =     327.61 seconds =       5.46 minutes
	system time =       3.33 seconds =       0.06 minutes
	total time  =        330 seconds =       5.50 minutes

			-----------------------------------------
			 OPTKING 2.0: for geometry optimizations 
			  - R.A. King,  Bethel University        
			-----------------------------------------

	Internal coordinates to be generated automatically.
	Detected frag 1 with atoms:  1 2 3 4 5 6 7 8 9 10 11 12 13 14
	---Fragment 1 Bond Connectivity---
	 1 : 4
	 2 : 4
	 3 : 4
	 4 : 1 2 3 7
	 5 : 7
	 6 : 7
	 7 : 4 5 6 10
	 8 : 10
	 9 : 10
	 10 : 7 8 9 14
	 11 : 14
	 12 : 14
	 13 : 14
	 14 : 10 11 12 13

	Assuming in current code that numbering for constraints corresponds to unified fragment.
	Fixed dihedral atom list: 
	    14    10     7     4
	---Fragment 1 Geometry and Gradient---
	 H          -3.0224501421        0.8391771056       -3.0071954521
	 H          -2.4290761363        3.9326587852       -2.0150892323
	 H           0.0332370148        2.0731682704       -3.1904988870
	 C          -1.6769651354        2.0561607352       -2.1152447174
	 H           0.2222096281        2.3074943109        1.4638965783
	 H          -2.8353672549        1.0735031461        1.6509794655
	 C          -1.1251651046        1.0886209552        0.5738355697
	 H          -1.0609144161       -2.8098840570        1.7020020711
	 H          -0.2313246438       -2.3128860840       -1.4538405709
	 C          -0.0442417566       -1.6099079626        0.4321061098
	 H           3.5178920039       -3.4448320376        1.0783924472
	 H           2.9566433424       -0.8672455924        3.0626048867
	 H           3.7862331147       -0.3702476194       -0.0932377552
	 C           2.7676707291       -1.5702237138        1.1766582061
	             0.0076427900        0.0060584469        0.0065663947
	             0.0042353933       -0.0109778268        0.0039107860
	            -0.0099057628       -0.0004336321        0.0084236367
	            -0.0019661293        0.0013367605       -0.0273705427
	            -0.0056785446       -0.0080053480       -0.0073044030
	             0.0100908811       -0.0034825828       -0.0074975127
	             0.0010746939        0.0150146487        0.0294515471
	             0.0054081964        0.0103191958       -0.0057564531
	             0.0026811822        0.0068102228        0.0105979559
	            -0.0188520460       -0.0231293273       -0.0145773272
	            -0.0087199296        0.0100293030       -0.0003226018
	            -0.0027754934       -0.0038593324       -0.0107927305
	            -0.0075792888       -0.0070556839        0.0065053768
	             0.0243440576        0.0073751557        0.0081658737

	Previous optimization step data not found.  Starting new optimization.

	---Fragment 1 Intrafragment Coordinates---
	 - Coordinate -           - BOHR/RAD -       - ANG/DEG -
	 R(1,4)           =         2.021622	       1.069796
	 R(2,4)           =         2.024092	       1.071103
	 R(3,4)           =         2.020211	       1.069050
	 R(4,7)           =         2.910630	       1.540239
	 R(5,7)           =         2.023185	       1.070624
	 R(6,7)           =         2.021202	       1.069574
	 R(7,10)          =         2.910419	       1.540128
	 R(8,10)          =         2.021436	       1.069698
	 R(9,10)          =         2.021379	       1.069668
	 R(10,14)         =         2.909087	       1.539422
	 R(11,14)         =         2.021545	       1.069756
	 R(12,14)         =         2.021555	       1.069761
	 R(13,14)         =         2.022387	       1.070201
	 B(1,4,2)         =         1.909872	     109.427629
	 B(1,4,3)         =         1.910973	     109.490684
	 B(1,4,7)         =         1.911010	     109.492783
	 B(2,4,3)         =         1.910376	     109.456496
	 B(2,4,7)         =         1.910180	     109.445239
	 B(3,4,7)         =         1.911388	     109.514443
	 B(4,7,5)         =         1.909679	     109.416570
	 B(4,7,6)         =         1.911800	     109.538100
	 B(4,7,10)        =         1.910952	     109.489496
	 B(5,7,6)         =         1.910866	     109.484552
	 B(5,7,10)        =         1.909936	     109.431298
	 B(6,7,10)        =         1.910564	     109.467252
	 B(7,10,8)        =         1.910303	     109.452301
	 B(7,10,9)        =         1.910824	     109.482155
	 B(7,10,14)       =         1.911213	     109.504437
	 B(8,10,9)        =         1.910417	     109.458846
	 B(8,10,14)       =         1.910766	     109.478806
	 B(9,10,14)       =         1.910276	     109.450772
	 B(10,14,11)      =         1.910943	     109.488965
	 B(10,14,12)      =         1.911204	     109.503926
	 B(10,14,13)      =         1.911557	     109.524173
	 B(11,14,12)      =         1.910410	     109.458432
	 B(11,14,13)      =         1.910054	     109.438058
	 B(12,14,13)      =         1.909629	     109.413709
	 D(1,4,7,5)       =         3.141060	     179.969485
	 D(1,4,7,6)       =        -1.047315	     -60.006737
	 D(1,4,7,10)      =         1.047907	      60.040626
	 D(2,4,7,5)       =        -1.048709	     -60.086606
	 D(2,4,7,6)       =         1.046101	      59.937172
	 D(2,4,7,10)      =         3.141323	     179.984535
	 D(3,4,7,5)       =         1.045555	      59.905904
	 D(3,4,7,6)       =         3.140365	     179.929682
	 D(3,4,7,10)      =        -1.047598	     -60.022955
	 D(4,7,10,8)      =        -2.268784	    -129.991750
	 D(4,7,10,9)      =        -0.174739	     -10.011795
	 D(4,7,10,14)     =         1.919691	     109.990208
	 D(5,7,10,8)      =         1.921405	     110.088414
	 D(5,7,10,9)      =        -2.267735	    -129.931631
	 D(5,7,10,14)     =        -0.173305	      -9.929628
	 D(6,7,10,8)      =        -0.172806	      -9.901047
	 D(6,7,10,9)      =         1.921239	     110.078908
	 D(6,7,10,14)     =        -2.267516	    -129.919088
	 D(7,10,14,11)    =         3.141408	     179.989448
	 D(7,10,14,12)    =         1.046747	      59.974196
	 D(7,10,14,13)    =        -1.047335	     -60.007849
	 D(8,10,14,11)    =         1.046982	      59.987626
	 D(8,10,14,12)    =        -1.047680	     -60.027626
	 D(8,10,14,13)    =         3.141424	     179.990329
	 D(9,10,14,11)    =        -1.047012	     -59.989345
	 D(9,10,14,12)    =         3.141512	     179.995403
	 D(9,10,14,13)    =         1.047431	      60.013359

	Current energy   :      -158.1523594984

	Generating empirical Hessian (Schlegel '84) for each fragment.
	Adding user-defined constraint: Fragment 1; Coordinate 49:
		Value =     1.919691; Fixed value    =     1.919862
		Force =     0.000085; Force constant =     0.500000
	Removing off-diagonal coupling between coordinate 49 and others.
	Taking RFO optimization step.
	Going to follow RFO solution 1.
	Using RFO vector 1.

	Determining step-restricting scale parameter for RS-RFO.
	Maximum step size allowed    0.10000

	 Iter      |step|        alpha        rfo_root  
	------------------------------------------------
	    0     0.20383       1.00000           1
	    1     0.16210       4.59207           1
	    2     0.12716      14.35901           1
	    3     0.10789      26.87386           1
	    4     0.10095      33.91491           1
	    5     0.10002      35.01290           1
	    6     0.10000      35.03274           1
	------------------------------------------------
	Norm of target step-size    0.10000
	Projected energy change by RFO approximation:        -0.0043250805

	Back-transformation to cartesian coordinates...
	Successfully converged to displaced geometry.

	--- Internal Coordinate Step in ANG or DEG, aJ/ANG or AJ/DEG ---
	 ---------------------------------------------------------------------------
	   Coordinate                Previous        Force       Change         New 
	   ----------                --------       ------       ------       ------
	    1 R(1,4)          =      1.069796     0.095823     0.011853     1.081649
	    2 R(2,4)          =      1.071103     0.095220     0.011816     1.082919
	    3 R(3,4)          =      1.069050     0.106055     0.013095     1.082144
	    4 R(4,7)          =      1.540239    -0.053459    -0.007954     1.532285
	    5 R(5,7)          =      1.070624     0.097365     0.012068     1.082692
	    6 R(6,7)          =      1.069574     0.103048     0.012740     1.082314
	    7 R(7,10)         =      1.540128     0.018069     0.002688     1.542815
	    8 R(8,10)         =      1.069698     0.102671     0.012697     1.082395
	    9 R(9,10)         =      1.069668     0.103021     0.012739     1.082407
	   10 R(10,14)        =      1.539422    -0.050190    -0.007455     1.531967
	   11 R(11,14)        =      1.069756     0.103155     0.012759     1.082514
	   12 R(12,14)        =      1.069761     0.096148     0.011892     1.081653
	   13 R(13,14)        =      1.070201     0.099594     0.012332     1.082533
	   14 B(1,4,2)        =    109.427629    -0.000230    -0.537387   108.890241
	   15 B(1,4,3)        =    109.490684    -0.000143    -0.404855   109.085829
	   16 B(1,4,7)        =    109.492783     0.000078     0.174994   109.667778
	   17 B(2,4,3)        =    109.456496    -0.000246    -0.593250   108.863245
	   18 B(2,4,7)        =    109.445239     0.000451     1.138872   110.584111
	   19 B(3,4,7)        =    109.514443     0.000091     0.206572   109.721016
	   20 B(4,7,5)        =    109.416570    -0.000167    -0.324906   109.091664
	   21 B(4,7,6)        =    109.538100    -0.000220    -0.505239   109.032861
	   22 B(4,7,10)       =    109.489496     0.000602     1.338449   110.827945
	   23 B(5,7,6)        =    109.484552    -0.000031    -0.388423   109.096128
	   24 B(5,7,10)       =    109.431298    -0.000161    -0.282292   109.149006
	   25 B(6,7,10)       =    109.467252    -0.000022     0.149741   109.616992
	   26 B(7,10,8)       =    109.452301    -0.000023     0.145660   109.597960
	   27 B(7,10,9)       =    109.482155    -0.000166    -0.297591   109.184565
	   28 B(7,10,14)      =    109.504437     0.000603     1.340250   110.844687
	   29 B(8,10,9)       =    109.458846    -0.000030    -0.383957   109.074890
	   30 B(8,10,14)      =    109.478806    -0.000216    -0.488934   108.989873
	   31 B(9,10,14)      =    109.450772    -0.000169    -0.328640   109.122132
	   32 B(10,14,11)     =    109.488965     0.000447     1.128856   110.617821
	   33 B(10,14,12)     =    109.503926     0.000077     0.172059   109.675985
	   34 B(10,14,13)     =    109.524173     0.000089     0.203501   109.727674
	   35 B(11,14,12)     =    109.458432    -0.000231    -0.540770   108.917662
	   36 B(11,14,13)     =    109.438058    -0.000244    -0.588330   108.849728
	   37 B(12,14,13)     =    109.413709    -0.000138    -0.391843   109.021867
	   38 D(1,4,7,5)      =    179.969485     0.000020     0.332551   180.302036
	   39 D(1,4,7,6)      =    -60.006737    -0.000043    -0.638350   -60.645087
	   40 D(1,4,7,10)     =     60.040626     0.000005     0.058805    60.099432
	   41 D(2,4,7,5)      =    -60.086606     0.000030     0.487452   -59.599155
	   42 D(2,4,7,6)      =     59.937172    -0.000034    -0.483450    59.453722
	   43 D(2,4,7,10)     =    179.984535     0.000014     0.213706   180.198241
	   44 D(3,4,7,5)      =     59.905904     0.000037     0.594408    60.500312
	   45 D(3,4,7,6)      =    179.929682    -0.000027    -0.376493   179.553189
	   46 D(3,4,7,10)     =    -60.022955     0.000021     0.320662   -59.702292
	   47 D(4,7,10,8)     =   -129.991750     0.000011     0.185672  -129.806078
	   48 D(4,7,10,9)     =    -10.011795    -0.000024    -0.376258   -10.388053
	   49 D(4,7,10,14)    =    109.990208    -0.000010    -0.138801   109.851407
	   50 D(5,7,10,8)     =    110.088414    -0.000004    -0.062921   110.025493
	   51 D(5,7,10,9)     =   -129.931631    -0.000039    -0.624851  -130.556482
	   52 D(5,7,10,14)    =     -9.929628    -0.000025    -0.387394   -10.317022
	   53 D(6,7,10,8)     =     -9.901047     0.000030     0.492712    -9.408335
	   54 D(6,7,10,9)     =    110.078908    -0.000005    -0.069218   110.009690
	   55 D(6,7,10,14)    =   -129.919088     0.000009     0.168239  -129.750850
	   56 D(7,10,14,11)   =    179.989448     0.000014     0.218062   180.207510
	   57 D(7,10,14,12)   =     59.974196     0.000006     0.073919    60.048115
	   58 D(7,10,14,13)   =    -60.007849     0.000021     0.323638   -59.684210
	   59 D(8,10,14,11)   =     59.987626    -0.000033    -0.483694    59.503932
	   60 D(8,10,14,12)   =    -60.027626    -0.000042    -0.627837   -60.655463
	   61 D(8,10,14,13)   =    179.990329    -0.000027    -0.378118   179.612212
	   62 D(9,10,14,11)   =    -59.989345     0.000029     0.473485   -59.515859
	   63 D(9,10,14,12)   =    179.995403     0.000020     0.329342   180.324745
	   64 D(9,10,14,13)   =     60.013359     0.000036     0.579061    60.592420
	 ---------------------------------------------------------------------------
	Successfully symmetrized geometry.
	 Forces used to impose fixed constraints are not included.
	  Forces zeroed: 49 

  ==> Convergence Check <==

  Measures of convergence in internal coordinates in au.
  Criteria marked as inactive (o), active & met (*), and active & unmet ( ).
  --------------------------------------------------------------------------------------------- ~
   Step     Total Energy     Delta E     MAX Force     RMS Force      MAX Disp      RMS Disp    ~
  --------------------------------------------------------------------------------------------- ~
    Convergence Criteria    1.00e-06 *    3.00e-04 *             o    1.20e-03 *             o  ~
  --------------------------------------------------------------------------------------------- ~
      1    -158.15235950   -1.58e+02      1.29e-02      5.46e-03 o    2.47e-02      1.25e-02 o  ~
  ---------------------------------------------------------------------------------------------

	Writing optimization data to binary file.
	Structure for next step:
	Cartesian Geometry (in Angstrom)
	    H    -1.6114084397   0.4172078794  -1.6145503583
	    H    -1.3212577150   2.0768509839  -1.1021706763
	    H     0.0106825173   1.0996313033  -1.7124871773
	    C    -0.9032821821   1.0783370223  -1.1334778892
	    H     0.0984000123   1.2447433464   0.7571060749
	    H    -1.5258808600   0.5645142381   0.8538090489
	    C    -0.6065987075   0.5738647923   0.2826377969
	    H    -0.5463356000  -1.4878603352   0.9289881237
	    H    -0.0965624630  -1.2442415488  -0.7584058892
	    C    -0.0061262802  -0.8467843807   0.2443174894
	    H     1.8911242791  -1.8223817621   0.6122124267
	    H     1.5729072288  -0.4338682873   1.6474970086
	    H     2.0259161465  -0.1914627124  -0.0380737702
	    C     1.4726578536  -0.8245229635   0.6438476613
			--------------------------
			 OPTKING Finished Execution 
			--------------------------

    Structure for next step:
    Molecular point group: c1
    Full point group: C1

    Geometry (in Angstrom), charge = 0, multiplicity = 1:

    H           -1.611086235242     0.417283419341    -1.614868747057
    H           -1.320935510600     2.076926523765    -1.102489065012
    H            0.011004721744     1.099706843195    -1.712805566008
    C           -0.902959977716     1.078412562199    -1.133796277936
    H            0.098722216713     1.244818886319     0.756787686137
    H           -1.525558655588     0.564589778025     0.853490660188
    C           -0.606276503094     0.573940332256     0.282319408145
    H           -0.546013395555    -1.487784795267     0.928669734970
    H           -0.096240258634    -1.244166008916    -0.758724277949
    C           -0.005804075739    -0.846708840770     0.243999100697
    H            1.891446483536    -1.822306222144     0.611894037964
    H            1.573229433200    -0.433792747417     1.647178619852
    H            2.026238350903    -0.191387172457    -0.038392158946
    C            1.472980058008    -0.824447423615     0.643529272585

gradient() will perform analytic gradient computation.

*** tstart() called on cpu-6-2.local
*** at Wed Jun 14 14:27:35 2017

    SCF Algorithm Type (re)set to DF.

*** tstart() called on cpu-6-2.local
*** at Wed Jun 14 14:27:35 2017

   => Loading Basis Set <=

    Name: AUG-CC-PVTZ
    Role: ORBITAL
    Keyword: BASIS
    atoms 1-3, 5-6, 8-9, 11-13 entry H          line    34 file /cbio/jclab/home/chayas/anaconda/envs/py35/share/psi4/basis/aug-cc-pvtz.gbs 
    atoms 4, 7, 10, 14         entry C          line   221 file /cbio/jclab/home/chayas/anaconda/envs/py35/share/psi4/basis/aug-cc-pvtz.gbs 


         ---------------------------------------------------------
                                   SCF
            by Justin Turney, Rob Parrish, and Andy Simmonett
                              RHF Reference
                        1 Threads,    953 MiB Core
         ---------------------------------------------------------

  ==> Geometry <==

    Molecular point group: c1
    Full point group: C1

    Geometry (in Angstrom), charge = 0, multiplicity = 1:

       Center              X                  Y                   Z               Mass       
    ------------   -----------------  -----------------  -----------------  -----------------
           H         -1.611086235242     0.417283419341    -1.614868747057     1.007825032070
           H         -1.320935510600     2.076926523765    -1.102489065012     1.007825032070
           H          0.011004721744     1.099706843195    -1.712805566008     1.007825032070
           C         -0.902959977716     1.078412562199    -1.133796277936    12.000000000000
           H          0.098722216713     1.244818886319     0.756787686137     1.007825032070
           H         -1.525558655588     0.564589778025     0.853490660188     1.007825032070
           C         -0.606276503094     0.573940332256     0.282319408145    12.000000000000
           H         -0.546013395555    -1.487784795267     0.928669734970     1.007825032070
           H         -0.096240258634    -1.244166008916    -0.758724277949     1.007825032070
           C         -0.005804075739    -0.846708840770     0.243999100697    12.000000000000
           H          1.891446483536    -1.822306222144     0.611894037964     1.007825032070
           H          1.573229433200    -0.433792747417     1.647178619852     1.007825032070
           H          2.026238350903    -0.191387172457    -0.038392158946     1.007825032070
           C          1.472980058008    -0.824447423615     0.643529272585    12.000000000000

  Running in c1 symmetry.

  Rotational constants: A =      0.55589  B =      0.13463  C =      0.13140 [cm^-1]
  Rotational constants: A =  16665.29018  B =   4036.03723  C =   3939.34509 [MHz]
  Nuclear repulsion =  132.186659940728390

  Charge       = 0
  Multiplicity = 1
  Electrons    = 34
  Nalpha       = 17
  Nbeta        = 17

  ==> Algorithm <==

  SCF Algorithm Type is DF.
  DIIS enabled.
  MOM disabled.
  Fractional occupation disabled.
  Guess Type is READ.
  Energy threshold   = 1.00e-10
  Density threshold  = 1.00e-10
  Integral threshold = 0.00e+00

  ==> Primary Basis <==

  Basis Set: AUG-CC-PVTZ
    Blend: AUG-CC-PVTZ
    Number of shells: 146
    Number of basis function: 414
    Number of Cartesian functions: 470
    Spherical Harmonics?: true
    Max angular momentum: 3

   => Loading Basis Set <=

    Name: (AUG-CC-PVTZ AUX)
    Role: JKFIT
    Keyword: DF_BASIS_SCF
    atoms 1-3, 5-6, 8-9, 11-13 entry H          line    69 file /cbio/jclab/home/chayas/anaconda/envs/py35/share/psi4/basis/aug-cc-pvtz-jkfit.gbs 
    atoms 4, 7, 10, 14         entry C          line   161 file /cbio/jclab/home/chayas/anaconda/envs/py35/share/psi4/basis/aug-cc-pvtz-jkfit.gbs 

  Reading orbitals from file 180, no projection.

  ==> Pre-Iterations <==

   -------------------------------------------------------
    Irrep   Nso     Nmo     Nalpha   Nbeta   Ndocc  Nsocc
   -------------------------------------------------------
     A        414     414       0       0       0       0
   -------------------------------------------------------
    Total     414     414      17      17      17       0
   -------------------------------------------------------

  ==> Integral Setup <==

  ==> DFJK: Density-Fitted J/K Matrices <==

    J tasked:                  Yes
    K tasked:                  Yes
    wK tasked:                  No
    OpenMP threads:              1
    Integrals threads:           1
    Memory (MB):               715
    Algorithm:                Core
    Integral Cache:           NONE
    Schwarz Cutoff:          1E-12
    Fitting Condition:       1E-12

   => Auxiliary Basis Set <=

  Basis Set: (AUG-CC-PVTZ AUX)
    Blend: AUG-CC-PVTZ-JKFIT
    Number of shells: 260
    Number of basis function: 876
    Number of Cartesian functions: 1074
    Spherical Harmonics?: true
    Max angular momentum: 4

  Minimum eigenvalue in the overlap matrix is 8.0796831397E-06.
  Using Symmetric Orthogonalization.

  SCF Guess: Orbitals guess was supplied from a previous computation.

  ==> Iterations <==

                           Total Energy        Delta E     RMS |[F,P]|

   @DF-RHF iter   0:  -157.26242882794315   -1.57262e+02   1.46608e-04 
   @DF-RHF iter   1:  -157.34927034774131   -8.68415e-02   6.12736e-05 
   @DF-RHF iter   2:  -157.34965241757226   -3.82070e-04   3.17997e-05 DIIS
   @DF-RHF iter   3:  -157.34973658496574   -8.41674e-05   4.32579e-06 DIIS
   @DF-RHF iter   4:  -157.34974056611293   -3.98115e-06   1.04544e-06 DIIS
   @DF-RHF iter   5:  -157.34974076545436   -1.99341e-07   3.67048e-07 DIIS
   @DF-RHF iter   6:  -157.34974078611376   -2.06594e-08   6.92685e-08 DIIS
   @DF-RHF iter   7:  -157.34974078719753   -1.08378e-09   1.28214e-08 DIIS
   @DF-RHF iter   8:  -157.34974078723150   -3.39639e-11   3.04903e-09 DIIS
   @DF-RHF iter   9:  -157.34974078723315   -1.64846e-12   6.64698e-10 DIIS
   @DF-RHF iter  10:  -157.34974078723371   -5.68434e-13   1.27869e-10 DIIS
   @DF-RHF iter  11:  -157.34974078723499   -1.27898e-12   2.60578e-11 DIIS

  ==> Post-Iterations <==

    Orbital Energies (a.u.)
    -----------------------

    Doubly Occupied:                                                      

       1A    -11.209679     2A    -11.209105     3A    -11.204771  
       4A    -11.204742     5A     -1.070097     6A     -0.978939  
       7A     -0.862855     8A     -0.787223     9A     -0.632802  
      10A     -0.608463    11A     -0.580377    12A     -0.548967  
      13A     -0.514911    14A     -0.506933    15A     -0.468169  
      16A     -0.458462    17A     -0.448785  

    Virtual:                                                              

      18A      0.032006    19A      0.037655    20A      0.039848  
      21A      0.040489    22A      0.056636    23A      0.059167  
      24A      0.060274    25A      0.062803    26A      0.070378  
      27A      0.084157    28A      0.110101    29A      0.120792  
      30A      0.121454    31A      0.127049    32A      0.129048  
      33A      0.133991    34A      0.141018    35A      0.142536  
      36A      0.151271    37A      0.152111    38A      0.158049  
      39A      0.165222    40A      0.178327    41A      0.196465  
      42A      0.208014    43A      0.211846    44A      0.229994  
      45A      0.237516    46A      0.248733    47A      0.260322  
      48A      0.273822    49A      0.278029    50A      0.293241  
      51A      0.300442    52A      0.306671    53A      0.314130  
      54A      0.318306    55A      0.329561    56A      0.335813  
      57A      0.345920    58A      0.355288    59A      0.355595  
      60A      0.362118    61A      0.367135    62A      0.372786  
      63A      0.381604    64A      0.381739    65A      0.388222  
      66A      0.393852    67A      0.402450    68A      0.402694  
      69A      0.412896    70A      0.423647    71A      0.426841  
      72A      0.435024    73A      0.440790    74A      0.447099  
      75A      0.449946    76A      0.454798    77A      0.457355  
      78A      0.465184    79A      0.473019    80A      0.476889  
      81A      0.477806    82A      0.495988    83A      0.501110  
      84A      0.504768    85A      0.523267    86A      0.525544  
      87A      0.526533    88A      0.539803    89A      0.548973  
      90A      0.556096    91A      0.559048    92A      0.560630  
      93A      0.576868    94A      0.577726    95A      0.581877  
      96A      0.592175    97A      0.606045    98A      0.610379  
      99A      0.613659   100A      0.621399   101A      0.629697  
     102A      0.640866   103A      0.654957   104A      0.664601  
     105A      0.677952   106A      0.716009   107A      0.752169  
     108A      0.775705   109A      0.792497   110A      0.818311  
     111A      0.825894   112A      0.831998   113A      0.832843  
     114A      0.839388   115A      0.843177   116A      0.856903  
     117A      0.871387   118A      0.872702   119A      0.873230  
     120A      0.878136   121A      0.894471   122A      0.907606  
     123A      0.914764   124A      0.914936   125A      0.925950  
     126A      0.933003   127A      0.935935   128A      0.939345  
     129A      0.948236   130A      0.961537   131A      0.965136  
     132A      0.972426   133A      0.982839   134A      0.988781  
     135A      1.000733   136A      1.013504   137A      1.037056  
     138A      1.038315   139A      1.047193   140A      1.052011  
     141A      1.071526   142A      1.083718   143A      1.095009  
     144A      1.101871   145A      1.114368   146A      1.115266  
     147A      1.123772   148A      1.133885   149A      1.147882  
     150A      1.155360   151A      1.156519   152A      1.171871  
     153A      1.179950   154A      1.190474   155A      1.205350  
     156A      1.214341   157A      1.215895   158A      1.232918  
     159A      1.249228   160A      1.254814   161A      1.257432  
     162A      1.266988   163A      1.271913   164A      1.287397  
     165A      1.297652   166A      1.310911   167A      1.320278  
     168A      1.324092   169A      1.350232   170A      1.375053  
     171A      1.381592   172A      1.403188   173A      1.417884  
     174A      1.445541   175A      1.452450   176A      1.456684  
     177A      1.463647   178A      1.472410   179A      1.496479  
     180A      1.500328   181A      1.505946   182A      1.525495  
     183A      1.541906   184A      1.555022   185A      1.577428  
     186A      1.584839   187A      1.586273   188A      1.604837  
     189A      1.612456   190A      1.626653   191A      1.660490  
     192A      1.661674   193A      1.665622   194A      1.684795  
     195A      1.687927   196A      1.699592   197A      1.713221  
     198A      1.719358   199A      1.725282   200A      1.735888  
     201A      1.743471   202A      1.756636   203A      1.758513  
     204A      1.777955   205A      1.788445   206A      1.805536  
     207A      1.807660   208A      1.813748   209A      1.833342  
     210A      1.835958   211A      1.865370   212A      1.872139  
     213A      1.887220   214A      1.897241   215A      1.916312  
     216A      1.924708   217A      1.939835   218A      1.971261  
     219A      1.977119   220A      2.000917   221A      2.010735  
     222A      2.024498   223A      2.032097   224A      2.056651  
     225A      2.059322   226A      2.061462   227A      2.080238  
     228A      2.092279   229A      2.103480   230A      2.106476  
     231A      2.167415   232A      2.178818   233A      2.179807  
     234A      2.216761   235A      2.235115   236A      2.246422  
     237A      2.250955   238A      2.268632   239A      2.282932  
     240A      2.302960   241A      2.308343   242A      2.332155  
     243A      2.341357   244A      2.366597   245A      2.385765  
     246A      2.387082   247A      2.448626   248A      2.457267  
     249A      2.476857   250A      2.511558   251A      2.544446  
     252A      2.558370   253A      2.566779   254A      2.574128  
     255A      2.597379   256A      2.659307   257A      2.841164  
     258A      2.873078   259A      3.002264   260A      3.020001  
     261A      3.217984   262A      3.257369   263A      3.309513  
     264A      3.332203   265A      3.359909   266A      3.438901  
     267A      3.447351   268A      3.465776   269A      3.487485  
     270A      3.513866   271A      3.557083   272A      3.560911  
     273A      3.569386   274A      3.574206   275A      3.576151  
     276A      3.633468   277A      3.637011   278A      3.672478  
     279A      3.679087   280A      3.688381   281A      3.697385  
     282A      3.706364   283A      3.717710   284A      3.729421  
     285A      3.768959   286A      3.781504   287A      3.792515  
     288A      3.808377   289A      3.814982   290A      3.816082  
     291A      3.824031   292A      3.842920   293A      3.864067  
     294A      3.890699   295A      3.940151   296A      3.940375  
     297A      3.950500   298A      3.957514   299A      3.990059  
     300A      3.996283   301A      3.998249   302A      4.010017  
     303A      4.018683   304A      4.020234   305A      4.058917  
     306A      4.074004   307A      4.080363   308A      4.087342  
     309A      4.129337   310A      4.134806   311A      4.171228  
     312A      4.173689   313A      4.181007   314A      4.225895  
     315A      4.247230   316A      4.265613   317A      4.282103  
     318A      4.301237   319A      4.325368   320A      4.331325  
     321A      4.336378   322A      4.362959   323A      4.388263  
     324A      4.393144   325A      4.425455   326A      4.453578  
     327A      4.478906   328A      4.505146   329A      4.547094  
     330A      4.609123   331A      4.631474   332A      4.657314  
     333A      4.665409   334A      4.685043   335A      4.687199  
     336A      4.711881   337A      4.714882   338A      4.735740  
     339A      4.789510   340A      4.824737   341A      4.832776  
     342A      4.836537   343A      4.858505   344A      4.863034  
     345A      4.885102   346A      4.907419   347A      4.928610  
     348A      4.943598   349A      4.964916   350A      4.995239  
     351A      5.009740   352A      5.037803   353A      5.039758  
     354A      5.078103   355A      5.082444   356A      5.143051  
     357A      5.149868   358A      5.169323   359A      5.215540  
     360A      5.232153   361A      5.263753   362A      5.276392  
     363A      5.279307   364A      5.307829   365A      5.312222  
     366A      5.322781   367A      5.345877   368A      5.360749  
     369A      5.383619   370A      5.439390   371A      5.458832  
     372A      5.476497   373A      5.503990   374A      5.505356  
     375A      5.536279   376A      5.559177   377A      5.562837  
     378A      5.628045   379A      5.651138   380A      5.651419  
     381A      5.706289   382A      5.711638   383A      5.761748  
     384A      5.788270   385A      5.812491   386A      5.827793  
     387A      5.864008   388A      5.894476   389A      5.939684  
     390A      6.007136   391A      6.043943   392A      6.091479  
     393A      6.103022   394A      6.145722   395A      6.203597  
     396A      6.237902   397A      6.249492   398A      6.276806  
     399A      6.278722   400A      6.363268   401A      6.371025  
     402A      6.458680   403A      6.538706   404A      6.584543  
     405A      6.773391   406A      6.775613   407A      6.849633  
     408A      6.850462   409A      6.944607   410A      6.954213  
     411A     17.886476   412A     18.196026   413A     18.563683  
     414A     19.803499  

    Final Occupation by Irrep:
              A 
    DOCC [    17 ]

  Energy converged.

  @DF-RHF Final Energy:  -157.34974078723499

   => Energetics <=

    Nuclear Repulsion Energy =            132.1866599407283900
    One-Electron Energy =                -472.4822408963390217
    Two-Electron Energy =                 182.9458401683756108
    DFT Exchange-Correlation Energy =       0.0000000000000000
    Empirical Dispersion Energy =           0.0000000000000000
    PCM Polarization Energy =               0.0000000000000000
    EFP Energy =                            0.0000000000000000
    Total Energy =                       -157.3497407872349925



Properties will be evaluated at   0.000000,   0.000000,   0.000000 Bohr

Properties computed using the SCF density matrix

  Nuclear Dipole Moment: (a.u.)
     X:     0.4695      Y:     0.2099      Z:    -0.4024

  Electronic Dipole Moment: (a.u.)
     X:    -0.4957      Y:    -0.2218      Z:     0.4250

  Dipole Moment: (a.u.)
     X:    -0.0263      Y:    -0.0119      Z:     0.0226     Total:     0.0366

  Dipole Moment: (Debye)
     X:    -0.0667      Y:    -0.0302      Z:     0.0575     Total:     0.0931


*** tstop() called on cpu-6-2.local at Wed Jun 14 14:28:40 2017
Module time:
	user time   =      63.98 seconds =       1.07 minutes
	system time =       0.47 seconds =       0.01 minutes
	total time  =         65 seconds =       1.08 minutes
Total time:
	user time   =     391.64 seconds =       6.53 minutes
	system time =       3.90 seconds =       0.07 minutes
	total time  =        396 seconds =       6.60 minutes

  //>>>>>>>>>>>>>>>>>>>>>>>>>>>>>>>>>>>//
  //               DFMP2               //
  //<<<<<<<<<<<<<<<<<<<<<<<<<<<<<<<<<<<//

   => Loading Basis Set <=

    Name: (AUG-CC-PVTZ AUX)
    Role: RIFIT
    Keyword: DF_BASIS_MP2
    atoms 1-3, 5-6, 8-9, 11-13 entry H          line    29 file /cbio/jclab/home/chayas/anaconda/envs/py35/share/psi4/basis/aug-cc-pvtz-ri.gbs 
    atoms 4, 7, 10, 14         entry C          line   147 file /cbio/jclab/home/chayas/anaconda/envs/py35/share/psi4/basis/aug-cc-pvtz-ri.gbs 

	 --------------------------------------------------------
	                          DF-MP2                         
	      2nd-Order Density-Fitted Moller-Plesset Theory     
	              RMP2 Wavefunction,   1 Threads             
	                                                         
	        Rob Parrish, Justin Turney, Andy Simmonett,      
	           Ed Hohenstein, and C. David Sherrill          
	 --------------------------------------------------------

   => Auxiliary Basis Set <=

  Basis Set: (AUG-CC-PVTZ AUX)
    Blend: AUG-CC-PVTZ-RI
    Number of shells: 252
    Number of basis function: 884
    Number of Cartesian functions: 1094
    Spherical Harmonics?: true
    Max angular momentum: 4

	 --------------------------------------------------------
	                 NBF =   414, NAUX =   884
	 --------------------------------------------------------
	   CLASS    FOCC     OCC    AOCC    AVIR     VIR    FVIR
	   PAIRS       0      17      17     397     397       0
	 --------------------------------------------------------


         ------------------------------------------------------------
                                     CPHF                           
                                  Rob Parrish                       
         ------------------------------------------------------------

  ==> Geometry <==

    Molecular point group: c1
    Full point group: C1

    Geometry (in Angstrom), charge = 0, multiplicity = 1:

       Center              X                  Y                   Z               Mass       
    ------------   -----------------  -----------------  -----------------  -----------------
           H         -1.611086235242     0.417283419341    -1.614868747057     1.007825032070
           H         -1.320935510600     2.076926523765    -1.102489065012     1.007825032070
           H          0.011004721744     1.099706843195    -1.712805566008     1.007825032070
           C         -0.902959977716     1.078412562199    -1.133796277936    12.000000000000
           H          0.098722216713     1.244818886319     0.756787686137     1.007825032070
           H         -1.525558655588     0.564589778025     0.853490660188     1.007825032070
           C         -0.606276503094     0.573940332256     0.282319408145    12.000000000000
           H         -0.546013395555    -1.487784795267     0.928669734970     1.007825032070
           H         -0.096240258634    -1.244166008916    -0.758724277949     1.007825032070
           C         -0.005804075739    -0.846708840770     0.243999100697    12.000000000000
           H          1.891446483536    -1.822306222144     0.611894037964     1.007825032070
           H          1.573229433200    -0.433792747417     1.647178619852     1.007825032070
           H          2.026238350903    -0.191387172457    -0.038392158946     1.007825032070
           C          1.472980058008    -0.824447423615     0.643529272585    12.000000000000

  Nuclear repulsion =  132.186659940728390
  Reference energy  = -157.349740787234992

  ==> Basis Set <==

  Basis Set: AUG-CC-PVTZ
    Blend: AUG-CC-PVTZ
    Number of shells: 146
    Number of basis function: 414
    Number of Cartesian functions: 470
    Spherical Harmonics?: true
    Max angular momentum: 3

  ==> CGRSolver (by Rob Parrish) <==

   Number of roots    =         1
   Preconditioning    =    JACOBI
   Convergence cutoff =     1E-06
   Maximum iterations =       100

  ==> CPHFRHamiltonian (by Rob Parrish) <== 

  ==> DFJK: Density-Fitted J/K Matrices <==

    J tasked:                  Yes
    K tasked:                  Yes
    wK tasked:                  No
    OpenMP threads:              1
    Integrals threads:           1
    Memory (MB):               715
    Algorithm:                Core
    Integral Cache:           NONE
    Schwarz Cutoff:          1E-12
    Fitting Condition:       1E-12

   => Auxiliary Basis Set <=

  Basis Set: (AUG-CC-PVTZ AUX)
    Blend: AUG-CC-PVTZ-JKFIT
    Number of shells: 260
    Number of basis function: 876
    Number of Cartesian functions: 1074
    Spherical Harmonics?: true
    Max angular momentum: 4

  ==> CPHF Iterations <==

  => Iterations <=

             Iter  Converged  Remaining    Residual
  CGR           1          0          1   8.456E-02
  CGR           2          0          1   1.359E-02
  CGR           3          0          1   3.371E-03
  CGR           4          0          1   8.404E-04
  CGR           5          0          1   1.655E-04
  CGR           6          0          1   3.302E-05
  CGR           7          0          1   6.299E-06
  CGR           8          0          1   1.320E-06
  CGR           9          1          0   1.995E-07

    CGRSolver converged.

  ==> DFCorrGrad: Density-Fitted Correlated Gradients <==

    OpenMP threads:              1
    Integrals threads:           1
    Memory (MB):               715
    Schwarz Cutoff:          0E+00
    Fitting Condition:       1E-12

   => Auxiliary Basis Set <=

  Basis Set: (AUG-CC-PVTZ AUX)
    Blend: AUG-CC-PVTZ-JKFIT
    Number of shells: 260
    Number of basis function: 876
    Number of Cartesian functions: 1074
    Spherical Harmonics?: true
    Max angular momentum: 4

	-----------------------------------------------------------
	 ==================> DF-MP2 Energies <==================== 
	-----------------------------------------------------------
	 Reference Energy          =    -157.3497407872349925 [Eh]
	 Singles Energy            =      -0.0000000000000000 [Eh]
	 Same-Spin Energy          =      -0.1654495975807302 [Eh]
	 Opposite-Spin Energy      =      -0.6400603204505997 [Eh]
	 Correlation Energy        =      -0.8055099180313299 [Eh]
	 Total Energy              =    -158.1552507052663259 [Eh]
	-----------------------------------------------------------
	 ================> DF-SCS-MP2 Energies <================== 
	-----------------------------------------------------------
	 SCS Same-Spin Scale       =       0.3333333333333333 [-]
	 SCS Opposite-Spin Scale   =       1.2000000000000000 [-]
	 SCS Same-Spin Energy      =      -0.0551498658602434 [Eh]
	 SCS Opposite-Spin Energy  =      -0.7680723845407196 [Eh]
	 SCS Correlation Energy    =      -0.8232222504009630 [Eh]
	 SCS Total Energy          =    -158.1729630376359523 [Eh]
	-----------------------------------------------------------


  -Total Gradient:
     Atom            X                  Y                   Z
    ------   -----------------  -----------------  -----------------
       1        0.002127787759     0.001478996507     0.003066978027
       2        0.001068438747    -0.003049554427     0.002237215723
       3       -0.002396916146    -0.000146847277     0.003701614933
       4       -0.001761419150     0.000385459437    -0.014013823703
       5       -0.000346932576    -0.003039951530    -0.004193458067
       6        0.002252055322    -0.002591203932    -0.003475894428
       7        0.000750636383     0.009502455529     0.016036042427
       8        0.001984421728     0.004454303193    -0.000115810082
       9        0.002306228760     0.003928275551     0.002695470754
      10       -0.009636031246    -0.013453640117    -0.008530998207
      11       -0.003422160654     0.002283301338    -0.000290636639
      12       -0.001941984291    -0.001345840971    -0.003234457875
      13       -0.003294975372    -0.002289161723     0.001205337428
      14        0.012310850735     0.003883408421     0.004912419709


*** tstop() called on cpu-6-2.local at Wed Jun 14 14:32:51 2017
Module time:
	user time   =     312.70 seconds =       5.21 minutes
	system time =       3.21 seconds =       0.05 minutes
	total time  =        316 seconds =       5.27 minutes
Total time:
	user time   =     640.36 seconds =      10.67 minutes
	system time =       6.64 seconds =       0.11 minutes
	total time  =        647 seconds =      10.78 minutes

			-----------------------------------------
			 OPTKING 2.0: for geometry optimizations 
			  - R.A. King,  Bethel University        
			-----------------------------------------

	Previous internal coordinate definitions found.
	---Fragment 1 Geometry and Gradient---
	 H          -3.0445117611        0.7885513823       -3.0516596725
	 H          -2.4962063542        3.9248223280       -2.0834023974
	 H           0.0207959103        2.0781447601       -3.2367334386
	 C          -1.7063470668        2.0379044008       -2.1425644558
	 H           0.1865579528        2.3523667802        1.4301214675
	 H          -2.8828880587        1.0669200579        1.6128636047
	 C          -1.1456965517        1.0845900446        0.5335063634
	 H          -1.0318157825       -2.8115058077        1.7549314670
	 H          -0.1818677318       -2.3511330207       -1.4337810957
	 C          -0.0109681136       -1.6000478233        0.4610914770
	 H           3.5743158489       -3.4436596901        1.1563121541
	 H           2.9729727729       -0.8197494911        3.1127164835
	 H           3.8290355632       -0.3616693413       -0.0725506661
	 C           2.7835289088       -1.5579798416        1.2160940837
	             0.0021277878        0.0014789965        0.0030669780
	             0.0010684387       -0.0030495544        0.0022372157
	            -0.0023969161       -0.0001468473        0.0037016149
	            -0.0017614191        0.0003854594       -0.0140138237
	            -0.0003469326       -0.0030399515       -0.0041934581
	             0.0022520553       -0.0025912039       -0.0034758944
	             0.0007506364        0.0095024555        0.0160360424
	             0.0019844217        0.0044543032       -0.0001158101
	             0.0023062288        0.0039282756        0.0026954708
	            -0.0096360312       -0.0134536401       -0.0085309982
	            -0.0034221607        0.0022833013       -0.0002906366
	            -0.0019419843       -0.0013458410       -0.0032344579
	            -0.0032949754       -0.0022891617        0.0012053374
	             0.0123108507        0.0038834084        0.0049124197

	---Fragment 1 Intrafragment Coordinates---
	 - Coordinate -           - BOHR/RAD -       - ANG/DEG -
	 R(1,4)           =         2.044021	       1.081649
	 R(2,4)           =         2.046421	       1.082919
	 R(3,4)           =         2.044957	       1.082144
	 R(4,7)           =         2.895599	       1.532285
	 R(5,7)           =         2.045991	       1.082692
	 R(6,7)           =         2.045277	       1.082314
	 R(7,10)          =         2.915499	       1.542815
	 R(8,10)          =         2.045430	       1.082395
	 R(9,10)          =         2.045453	       1.082407
	 R(10,14)         =         2.894998	       1.531967
	 R(11,14)         =         2.045655	       1.082514
	 R(12,14)         =         2.044028	       1.081653
	 R(13,14)         =         2.045690	       1.082533
	 B(1,4,2)         =         1.900493	     108.890241
	 B(1,4,3)         =         1.903907	     109.085829
	 B(1,4,7)         =         1.914064	     109.667778
	 B(2,4,3)         =         1.900022	     108.863245
	 B(2,4,7)         =         1.930057	     110.584111
	 B(3,4,7)         =         1.914993	     109.721016
	 B(4,7,5)         =         1.904009	     109.091664
	 B(4,7,6)         =         1.902982	     109.032861
	 B(4,7,10)        =         1.934313	     110.827945
	 B(5,7,6)         =         1.904087	     109.096128
	 B(5,7,10)        =         1.905010	     109.149006
	 B(6,7,10)        =         1.913177	     109.616992
	 B(7,10,8)        =         1.912845	     109.597960
	 B(7,10,9)        =         1.905630	     109.184565
	 B(7,10,14)       =         1.934605	     110.844687
	 B(8,10,9)        =         1.903716	     109.074890
	 B(8,10,14)       =         1.902232	     108.989873
	 B(9,10,14)       =         1.904540	     109.122132
	 B(10,14,11)      =         1.930645	     110.617821
	 B(10,14,12)      =         1.914207	     109.675985
	 B(10,14,13)      =         1.915109	     109.727674
	 B(11,14,12)      =         1.900972	     108.917662
	 B(11,14,13)      =         1.899786	     108.849728
	 B(12,14,13)      =         1.902791	     109.021867
	 D(1,4,7,5)       =        -3.136321	    -179.697964
	 D(1,4,7,6)       =        -1.058456	     -60.645087
	 D(1,4,7,10)      =         1.048933	      60.099432
	 D(2,4,7,5)       =        -1.040201	     -59.599155
	 D(2,4,7,6)       =         1.037663	      59.453722
	 D(2,4,7,10)      =        -3.138133	    -179.801759
	 D(3,4,7,5)       =         1.055930	      60.500312
	 D(3,4,7,6)       =         3.133794	     179.553189
	 D(3,4,7,10)      =        -1.042002	     -59.702292
	 D(4,7,10,8)      =        -2.265543	    -129.806078
	 D(4,7,10,9)      =        -0.181306	     -10.388053
	 D(4,7,10,14)     =         1.917269	     109.851407
	 D(5,7,10,8)      =         1.920307	     110.025493
	 D(5,7,10,9)      =        -2.278640	    -130.556482
	 D(5,7,10,14)     =        -0.180066	     -10.317022
	 D(6,7,10,8)      =        -0.164206	      -9.408335
	 D(6,7,10,9)      =         1.920031	     110.009690
	 D(6,7,10,14)     =        -2.264580	    -129.750850
	 D(7,10,14,11)    =        -3.137971	    -179.792490
	 D(7,10,14,12)    =         1.048037	      60.048115
	 D(7,10,14,13)    =        -1.041686	     -59.684210
	 D(8,10,14,11)    =         1.038540	      59.503932
	 D(8,10,14,12)    =        -1.058638	     -60.655463
	 D(8,10,14,13)    =         3.134824	     179.612212
	 D(9,10,14,11)    =        -1.038748	     -59.515859
	 D(9,10,14,12)    =        -3.135925	    -179.675255
	 D(9,10,14,13)    =         1.057537	      60.592420

	Current energy   :      -158.1552507053

	Energy change for the previous step:
		Projected    :        -0.0043250805
		Actual       :        -0.0028912069

	Performing BFGS update.
	Previous computed or guess Hessian on step 1.
	Steps to be used in Hessian update: 1
	Adding user-defined constraint: Fragment 1; Coordinate 49:
		Value =     1.917269; Fixed value    =     1.919860
		Force =     0.001360; Force constant =     0.525000
	Removing off-diagonal coupling between coordinate 49 and others.
	Taking RFO optimization step.
	Going to follow RFO solution 1.
	Using RFO vector 1.

	Determining step-restricting scale parameter for RS-RFO.
	Maximum step size allowed    0.10000

	 Iter      |step|        alpha        rfo_root  
	------------------------------------------------
	    0     0.18447       1.00000           1
	    1     0.14638       3.40105           1
	    2     0.12173       9.47466           1
	    3     0.10585      18.14500           1
	    4     0.10056      22.37256           1
	    5     0.10001      22.86524           1
	------------------------------------------------
	Norm of target step-size    0.10001
	Projected energy change by RFO approximation:        -0.0022324306

	Back-transformation to cartesian coordinates...
	Could not converge backtransformation.
	Using first guess instead.

	--- Internal Coordinate Step in ANG or DEG, aJ/ANG or AJ/DEG ---
	 ---------------------------------------------------------------------------
	   Coordinate                Previous        Force       Change         New 
	   ----------                --------       ------       ------       ------
	    1 R(1,4)          =      1.081649     0.030162     0.005779     1.087428
	    2 R(2,4)          =      1.082919     0.026031     0.004746     1.087665
	    3 R(3,4)          =      1.082144     0.033020     0.006353     1.088497
	    4 R(4,7)          =      1.532285    -0.036054    -0.009568     1.522717
	    5 R(5,7)          =      1.082692     0.032521     0.006366     1.089058
	    6 R(6,7)          =      1.082314     0.030687     0.005732     1.088047
	    7 R(7,10)         =      1.542815    -0.014521    -0.004876     1.537939
	    8 R(8,10)         =      1.082395     0.030498     0.005696     1.088091
	    9 R(9,10)         =      1.082407     0.034044     0.006622     1.089029
	   10 R(10,14)        =      1.531967    -0.034915    -0.009292     1.522674
	   11 R(11,14)        =      1.082514     0.028169     0.005117     1.087631
	   12 R(12,14)        =      1.081653     0.030214     0.005785     1.087438
	   13 R(13,14)        =      1.082533     0.031159     0.006021     1.088553
	   14 B(1,4,2)        =    108.890241    -0.000141    -0.598878   108.291364
	   15 B(1,4,3)        =    109.085829    -0.000147    -0.843924   108.241905
	   16 B(1,4,7)        =    109.667778     0.000105     0.538671   110.206448
	   17 B(2,4,3)        =    108.863245    -0.000155    -0.684478   108.178768
	   18 B(2,4,7)        =    110.584111     0.000210     0.915026   111.499136
	   19 B(3,4,7)        =    109.721016     0.000119     0.605945   110.326961
	   20 B(4,7,5)        =    109.091664    -0.000035     0.102334   109.193998
	   21 B(4,7,6)        =    109.032861    -0.000076    -0.142388   108.890473
	   22 B(4,7,10)       =    110.827945     0.000245     1.076715   111.904660
	   23 B(5,7,6)        =    109.096128    -0.000094    -1.278357   107.817771
	   24 B(5,7,10)       =    109.149006    -0.000060    -0.110519   109.038487
	   25 B(6,7,10)       =    109.616992     0.000015     0.287850   109.904843
	   26 B(7,10,8)       =    109.597960     0.000016     0.298393   109.896353
	   27 B(7,10,9)       =    109.184565    -0.000062    -0.129638   109.054927
	   28 B(7,10,14)      =    110.844687     0.000242     1.062337   111.907024
	   29 B(8,10,9)       =    109.074890    -0.000093    -1.269650   107.805240
	   30 B(8,10,14)      =    108.989873    -0.000072    -0.114715   108.875157
	   31 B(9,10,14)      =    109.122132    -0.000035     0.088945   109.211077
	   32 B(10,14,11)     =    110.617821     0.000206     0.890372   111.508193
	   33 B(10,14,12)     =    109.675985     0.000103     0.529855   110.205839
	   34 B(10,14,13)     =    109.727674     0.000118     0.605358   110.333032
	   35 B(11,14,12)     =    108.917662    -0.000142    -0.611002   108.306660
	   36 B(11,14,13)     =    108.849728    -0.000153    -0.674616   108.175112
	   37 B(12,14,13)     =    109.021867    -0.000142    -0.807139   108.214728
	   38 D(1,4,7,5)      =   -179.697964     0.000015     0.748567  -178.949397
	   39 D(1,4,7,6)      =    -60.645087    -0.000026    -0.815895   -61.460982
	   40 D(1,4,7,10)     =     60.099432     0.000002     0.136929    60.236361
	   41 D(2,4,7,5)      =    -59.599155     0.000021     0.942339   -58.656816
	   42 D(2,4,7,6)      =     59.453722    -0.000020    -0.622124    58.831598
	   43 D(2,4,7,10)     =   -179.801759     0.000008     0.330701  -179.471058
[...]
  CGR           5          0          1   1.648E-04
  CGR           6          0          1   3.253E-05
  CGR           7          0          1   5.808E-06
  CGR           8          0          1   1.161E-06
  CGR           9          1          0   1.653E-07

    CGRSolver converged.

  ==> DFCorrGrad: Density-Fitted Correlated Gradients <==

    OpenMP threads:              1
    Integrals threads:           1
    Memory (MB):               715
    Schwarz Cutoff:          0E+00
    Fitting Condition:       1E-12

   => Auxiliary Basis Set <=

  Basis Set: (AUG-CC-PVTZ AUX)
    Blend: AUG-CC-PVTZ-JKFIT
    Number of shells: 260
    Number of basis function: 876
    Number of Cartesian functions: 1074
    Spherical Harmonics?: true
    Max angular momentum: 4

	-----------------------------------------------------------
	 ==================> DF-MP2 Energies <==================== 
	-----------------------------------------------------------
	 Reference Energy          =    -157.3508591470123577 [Eh]
	 Singles Energy            =      -0.0000000000000000 [Eh]
	 Same-Spin Energy          =      -0.1654638410469191 [Eh]
	 Opposite-Spin Energy      =      -0.6400461733372755 [Eh]
	 Correlation Energy        =      -0.8055100143841947 [Eh]
	 Total Energy              =    -158.1563691613965545 [Eh]
	-----------------------------------------------------------
	 ================> DF-SCS-MP2 Energies <================== 
	-----------------------------------------------------------
	 SCS Same-Spin Scale       =       0.3333333333333333 [-]
	 SCS Opposite-Spin Scale   =       1.2000000000000000 [-]
	 SCS Same-Spin Energy      =      -0.0551546136823064 [Eh]
	 SCS Opposite-Spin Energy  =      -0.7680554080047306 [Eh]
	 SCS Correlation Energy    =      -0.8232100216870369 [Eh]
	 SCS Total Energy          =    -158.1740691686993898 [Eh]
	-----------------------------------------------------------


  -Total Gradient:
     Atom            X                  Y                   Z
    ------   -----------------  -----------------  -----------------
       1       -0.000016328500    -0.000008955547    -0.000002688993
       2       -0.000005942223     0.000021445859     0.000000508086
       3        0.000019112829     0.000005416069    -0.000020387790
       4       -0.001408659339    -0.000638354004     0.000094200266
       5        0.000013176307    -0.000011815540    -0.000011220768
       6       -0.000005144115    -0.000013925370    -0.000006204198
       7        0.001778325140     0.000809799645     0.000466619172
       8       -0.000001178019     0.000011208787     0.000011661520
       9        0.000004678363     0.000019614401    -0.000004579167
      10        0.000015655020    -0.000010017962    -0.002009490645
      11        0.000009420194    -0.000020282928    -0.000003268647
      12       -0.000002276720     0.000000729886     0.000018420158
      13        0.000020543004     0.000011832209    -0.000013494689
      14       -0.000421381946    -0.000176695507     0.001479925695


*** tstop() called on cpu-6-2.local at Wed Jun 14 14:58:52 2017
Module time:
	user time   =     314.68 seconds =       5.24 minutes
	system time =       3.19 seconds =       0.05 minutes
	total time  =        318 seconds =       5.30 minutes
Total time:
	user time   =    2185.29 seconds =      36.42 minutes
	system time =      22.72 seconds =       0.38 minutes
	total time  =       2208 seconds =      36.80 minutes

			-----------------------------------------
			 OPTKING 2.0: for geometry optimizations 
			  - R.A. King,  Bethel University        
			-----------------------------------------

	Previous internal coordinate definitions found.
	---Fragment 1 Geometry and Gradient---
	 H          -3.1074138303        0.8330794254       -3.0620606176
	 H          -2.4745701834        3.9569862148       -2.1026234864
	 H          -0.0246055063        2.0493241017       -3.2981322835
	 C          -1.7251360388        2.0432373337       -2.1385057746
	 H           0.1430019346        2.3726579519        1.4443827925
	 H          -2.8831022041        1.0779751133        1.6076708693
	 C          -1.1483263018        1.0742846133        0.4998647904
	 H          -1.0229200280       -2.8187417460        1.7513520095
	 H          -0.1860408912       -2.3918432614       -1.4073757552
	 C           0.0138185095       -1.5798934471        0.4757635087
	 H           3.6066626412       -3.4524562598        1.1290925219
	 H           3.0012321872       -0.8803770474        3.1533627176
	 H           3.8684503394       -0.3362827169       -0.0074211384
	 C           2.7823189208       -1.5720895463        1.2293731303
	            -0.0000163285       -0.0000089555       -0.0000026890
	            -0.0000059422        0.0000214459        0.0000005081
	             0.0000191128        0.0000054161       -0.0000203878
	            -0.0014086593       -0.0006383540        0.0000942003
	             0.0000131763       -0.0000118155       -0.0000112208
	            -0.0000051441       -0.0000139254       -0.0000062042
	             0.0017783251        0.0008097996        0.0004666192
	            -0.0000011780        0.0000112088        0.0000116615
	             0.0000046784        0.0000196144       -0.0000045792
	             0.0000156550       -0.0000100180       -0.0020094906
	             0.0000094202       -0.0000202829       -0.0000032686
	            -0.0000022767        0.0000007299        0.0000184202
	             0.0000205430        0.0000118322       -0.0000134947
	            -0.0004213819       -0.0001766955        0.0014799257

	---Fragment 1 Intrafragment Coordinates---
	 - Coordinate -           - BOHR/RAD -       - ANG/DEG -
	 R(1,4)           =         2.056241	       1.088116
	 R(2,4)           =         2.055571	       1.087762
	 R(3,4)           =         2.058294	       1.089202
	 R(4,7)           =         2.869247	       1.518340
	 R(5,7)           =         2.060441	       1.090338
	 R(6,7)           =         2.058323	       1.089218
	 R(7,10)          =         2.897555	       1.533320
	 R(8,10)          =         2.058324	       1.089218
	 R(9,10)          =         2.060442	       1.090339
	 R(10,14)         =         2.869248	       1.518341
	 R(11,14)         =         2.055572	       1.087762
	 R(12,14)         =         2.056241	       1.088116
	 R(13,14)         =         2.058291	       1.089200
	 B(1,4,2)         =         1.886701	     108.099995
	 B(1,4,3)         =         1.879774	     107.703109
	 B(1,4,7)         =         1.927726	     110.450549
	 B(2,4,3)         =         1.884199	     107.956653
	 B(2,4,7)         =         1.951577	     111.817122
	 B(3,4,7)         =         1.931537	     110.668932
	 B(4,7,5)         =         1.912094	     109.554907
	 B(4,7,6)         =         1.901664	     108.957307
	 B(4,7,10)        =         1.963101	     112.477385
	 B(5,7,6)         =         1.854968	     106.281817
	 B(5,7,10)        =         1.906743	     109.248328
	 B(6,7,10)        =         1.922131	     110.130010
	 B(7,10,8)        =         1.922128	     110.129847
	 B(7,10,9)        =         1.906745	     109.248444
	 B(7,10,14)       =         1.963101	     112.477386
	 B(8,10,9)        =         1.854966	     106.281742
	 B(8,10,14)       =         1.901662	     108.957210
	 B(9,10,14)       =         1.912098	     109.555121
	 B(10,14,11)      =         1.951578	     111.817178
	 B(10,14,12)      =         1.927724	     110.450458
	 B(10,14,13)      =         1.931538	     110.668960
	 B(11,14,12)      =         1.886701	     108.100004
	 B(11,14,13)      =         1.884200	     107.956687
	 B(12,14,13)      =         1.879773	     107.703073
	 D(1,4,7,5)       =        -3.077335	    -176.318325
	 D(1,4,7,6)       =        -1.054730	     -60.431558
	 D(1,4,7,10)      =         1.081672	      61.975236
	 D(2,4,7,5)       =        -0.975494	     -55.891696
	 D(2,4,7,6)       =         1.047112	      59.995071
	 D(2,4,7,10)      =        -3.099672	    -177.598134
	 D(3,4,7,5)       =         1.125782	      64.502555
	 D(3,4,7,6)       =        -3.134798	    -179.610678
	 D(3,4,7,10)      =        -0.998396	     -57.203884
	 D(4,7,10,8)      =        -2.243034	    -128.516365
	 D(4,7,10,9)      =        -0.211876	     -12.139622
	 D(4,7,10,14)     =         1.915348	     109.741358
	 D(5,7,10,8)      =         1.912933	     109.603010
	 D(5,7,10,9)      =        -2.339095	    -134.020248
	 D(5,7,10,14)     =        -0.211870	     -12.139267
	 D(6,7,10,8)      =        -0.118226	      -6.773849
	 D(6,7,10,9)      =         1.912931	     109.602893
	 D(6,7,10,14)     =        -2.243030	    -128.516126
	 D(7,10,14,11)    =        -3.099685	    -177.598892
	 D(7,10,14,12)    =         1.081659	      61.974493
	 D(7,10,14,13)    =        -0.998408	     -57.204541
	 D(8,10,14,11)    =         1.047103	      59.994587
	 D(8,10,14,12)    =        -1.054738	     -60.432027
	 D(8,10,14,13)    =        -3.134804	    -179.611061
	 D(9,10,14,11)    =        -0.975502	     -55.892155
	 D(9,10,14,12)    =        -3.077343	    -176.318769
	 D(9,10,14,13)    =         1.125776	      64.502197

	Current energy   :      -158.1563691614

	Energy change for the previous step:
		Projected    :        -0.0000008424
		Actual       :         0.0000004246

	Performing BFGS update.
	Previous computed or guess Hessian on step 1.
	Steps to be used in Hessian update: 6 5
	Adding user-defined constraint: Fragment 1; Coordinate 49:
		Value =     1.915348; Fixed value    =     1.919860
		Force =     0.002933; Force constant =     0.650000
	Removing off-diagonal coupling between coordinate 49 and others.
	Taking RFO optimization step.
	Going to follow RFO solution 1.
	Using RFO vector 1.
	Norm of target step-size    0.00371
	Projected energy change by RFO approximation:         0.0000006007

	Back-transformation to cartesian coordinates...
	Successfully converged to displaced geometry.

	--- Internal Coordinate Step in ANG or DEG, aJ/ANG or AJ/DEG ---
	 ---------------------------------------------------------------------------
	   Coordinate                Previous        Force       Change         New 
	   ----------                --------       ------       ------       ------
	    1 R(1,4)          =      1.088116    -0.000144    -0.000037     1.088079
	    2 R(2,4)          =      1.087762    -0.000182    -0.000047     1.087715
	    3 R(3,4)          =      1.089202    -0.000225    -0.000047     1.089155
	    4 R(4,7)          =      1.518340    -0.000069    -0.000010     1.518330
	    5 R(5,7)          =      1.090338     0.000036     0.000005     1.090343
	    6 R(6,7)          =      1.089218    -0.000008     0.000014     1.089231
	    7 R(7,10)         =      1.533320    -0.000033    -0.000055     1.533265
	    8 R(8,10)         =      1.089218    -0.000009     0.000013     1.089231
	    9 R(9,10)         =      1.090339     0.000033     0.000004     1.090343
	   10 R(10,14)        =      1.518341    -0.000072    -0.000011     1.518330
	   11 R(11,14)        =      1.087762    -0.000185    -0.000047     1.087715
	   12 R(12,14)        =      1.088116    -0.000142    -0.000037     1.088079
	   13 R(13,14)        =      1.089200    -0.000215    -0.000045     1.089156
	   14 B(1,4,2)        =    108.099995    -0.000000     0.002236   108.102232
	   15 B(1,4,3)        =    107.703109    -0.000000    -0.002514   107.700596
	   16 B(1,4,7)        =    110.450549     0.000000    -0.001298   110.449251
	   17 B(2,4,3)        =    107.956653     0.000000     0.002838   107.959490
	   18 B(2,4,7)        =    111.817122     0.000000     0.002099   111.819221
	   19 B(3,4,7)        =    110.668932    -0.000001    -0.003328   110.665605
	   20 B(4,7,5)        =    109.554907     0.000002     0.025360   109.580267
	   21 B(4,7,6)        =    108.957307    -0.000002    -0.025671   108.931636
	   22 B(4,7,10)       =    112.477385    -0.000001     0.001695   112.479080
	   23 B(5,7,6)        =    106.281817    -0.000001    -0.013549   106.268268
	   24 B(5,7,10)       =    109.248328     0.000001     0.024252   109.272581
	   25 B(6,7,10)       =    110.130010     0.000000    -0.012849   110.117161
	   26 B(7,10,8)       =    110.129847     0.000000    -0.012678   110.117169
	   27 B(7,10,9)       =    109.248444     0.000001     0.024109   109.272553
	   28 B(7,10,14)      =    112.477386    -0.000001     0.001742   112.479128
	   29 B(8,10,9)       =    106.281742    -0.000001    -0.013476   106.268266
	   30 B(8,10,14)      =    108.957210    -0.000002    -0.025539   108.931671
	   31 B(9,10,14)      =    109.555121     0.000002     0.025080   109.580202
	   32 B(10,14,11)     =    111.817178     0.000000     0.002019   111.819197
	   33 B(10,14,12)     =    110.450458     0.000000    -0.001175   110.449283
	   34 B(10,14,13)     =    110.668960    -0.000001    -0.003363   110.665597
	   35 B(11,14,12)     =    108.100004    -0.000000     0.002224   108.102227
	   36 B(11,14,13)     =    107.956687     0.000000     0.002803   107.959490
	   37 B(12,14,13)     =    107.703073    -0.000000    -0.002473   107.700600
	   38 D(1,4,7,5)      =   -176.318325     0.000000     0.002569  -176.315756
	   39 D(1,4,7,6)      =    -60.431558    -0.000000    -0.014020   -60.445578
	   40 D(1,4,7,10)     =     61.975236    -0.000000    -0.047402    61.927834
	   41 D(2,4,7,5)      =    -55.891696     0.000000     0.005917   -55.885779
	   42 D(2,4,7,6)      =     59.995071     0.000000    -0.010671    59.984400
	   43 D(2,4,7,10)     =   -177.598134    -0.000000    -0.044054  -177.642188
	   44 D(3,4,7,5)      =     64.502555     0.000000     0.008650    64.511205
	   45 D(3,4,7,6)      =   -179.610678     0.000000    -0.007938  -179.618616
	   46 D(3,4,7,10)     =    -57.203884    -0.000000    -0.041321   -57.245205
	   47 D(4,7,10,8)     =   -128.516365     0.000001    -0.026182  -128.542547
	   48 D(4,7,10,9)     =    -12.139622     0.000001    -0.035683   -12.175305
	   49 D(4,7,10,14)    =    109.741358     0.000001     0.014391   109.755749
	   50 D(5,7,10,8)     =    109.603010    -0.000000    -0.076682   109.526328
	   51 D(5,7,10,9)     =   -134.020248    -0.000000    -0.086183  -134.106431
	   52 D(5,7,10,14)    =    -12.139267     0.000001    -0.036108   -12.175376
	   53 D(6,7,10,8)     =     -6.773849     0.000000    -0.067079    -6.840928
	   54 D(6,7,10,9)     =    109.602893    -0.000000    -0.076580   109.526313
	   55 D(6,7,10,14)    =   -128.516126     0.000001    -0.026506  -128.542632
	   56 D(7,10,14,11)   =   -177.598892    -0.000000    -0.043360  -177.642253
	   57 D(7,10,14,12)   =     61.974493    -0.000000    -0.046723    61.927770
	   58 D(7,10,14,13)   =    -57.204541    -0.000000    -0.040750   -57.245291
	   59 D(8,10,14,11)   =     59.994587     0.000000    -0.010320    59.984267
	   60 D(8,10,14,12)   =    -60.432027    -0.000000    -0.013683   -60.445710
	   61 D(8,10,14,13)   =   -179.611061     0.000000    -0.007710  -179.618771
	   62 D(9,10,14,11)   =    -55.892155     0.000000     0.006262   -55.885892
	   63 D(9,10,14,12)   =   -176.318769     0.000000     0.002899  -176.315870
	   64 D(9,10,14,13)   =     64.502197     0.000000     0.008873    64.511070
	 ---------------------------------------------------------------------------
	Successfully symmetrized geometry.
	 Forces used to impose fixed constraints are not included.
	  Forces zeroed: 49 

  ==> Convergence Check <==

  Measures of convergence in internal coordinates in au.
  Criteria marked as inactive (o), active & met (*), and active & unmet ( ).
  ---------------------------------------------------------------------------------------------
   Step     Total Energy     Delta E     MAX Force     RMS Force      MAX Disp      RMS Disp   
  ---------------------------------------------------------------------------------------------
    Convergence Criteria    1.00e-06 *    3.00e-04 *             o    1.20e-03 *             o
  ---------------------------------------------------------------------------------------------
      7    -158.15636916    4.25e-07 *    3.99e-05 *    1.63e-05 o    1.50e-03      4.63e-04 o  ~
  ---------------------------------------------------------------------------------------------


  **** Optimization is complete! (in 7 steps) ****

  ==> Optimization Summary <==

  Measures of convergence in internal coordinates in au.
  --------------------------------------------------------------------------------------------------------------- ~
   Step         Total Energy             Delta E       MAX Force       RMS Force        MAX Disp        RMS Disp  ~
  --------------------------------------------------------------------------------------------------------------- ~
      1    -158.152359498372   -158.152359498372      0.01287281      0.00545647      0.02474578      0.01251193  ~
      2    -158.155250705266     -0.002891206894      0.00437611      0.00209700      0.02731810      0.01251431  ~
      3    -158.156173463266     -0.000922758000      0.00131813      0.00056291      0.03067206      0.01251629  ~
      4    -158.156358451752     -0.000184988486      0.00079687      0.00016112      0.02288071      0.01065691  ~
      5    -158.156371776159     -0.000013324407      0.00018463      0.00006153      0.00518554      0.00239060  ~
      6    -158.156369585989      0.000002190170      0.00007676      0.00001852      0.00162834      0.00076823  ~
      7    -158.156369161397      0.000000424593      0.00007916      0.00001904      0.00150417      0.00046347  ~
  --------------------------------------------------------------------------------------------------------------- ~

	Writing optimization data to binary file.
	Final energy is   -158.1563691613966
	Final (previous) structure:
	Cartesian Geometry (in Angstrom)
	    H    -1.6443725767   0.4408466449  -1.6203726902
	    H    -1.3094861421   2.0939469196  -1.1126604273
	    H    -0.0130206731   1.0844556077  -1.7452964354
	    C    -0.9129026735   1.0812346287  -1.1316485164
	    H     0.0756733646   1.2555565119   0.7643344543
	    H    -1.5256719764   0.5704398614   0.8507427830
	    C    -0.6076681069   0.5684869329   0.2645170545
	    H    -0.5413059650  -1.4916138889   0.9267755676
	    H    -0.0984485995  -1.2657089404  -0.7447511736
	    C     0.0073124403  -0.8360436042   0.2517632055
	    H     1.9085636688  -1.8269611663   0.5974900290
	    H     1.5881836711  -0.4658754685   1.6686876806
	    H     2.0470957522  -0.1779531494  -0.0039270973
	    C     1.4723397599  -0.8319139577   0.6505562414
	Saving final (previous) structure.
			--------------------------
			 OPTKING Finished Execution 
			--------------------------

    Final optimized geometry and variables:
    Molecular point group: c1
    Full point group: C1

    Geometry (in Angstrom), charge = 0, multiplicity = 1:

    H           -1.644372576658     0.440846644864    -1.620372690181
    H           -1.309486142105     2.093946919587    -1.112660427258
    H           -0.013020673124     1.084455607651    -1.745296435368
    C           -0.912902673463     1.081234628725    -1.131648516368
    H            0.075673364601     1.255556511927     0.764334454271
    H           -1.525671976425     0.570439861375     0.850742782973
    C           -0.607668106919     0.568486932881     0.264517054457
    H           -0.541305965015    -1.491613888859     0.926775567624
    H           -0.098448599463    -1.265708940443    -0.744751173581
    C            0.007312440310    -0.836043604199     0.251763205489
    H            1.908563668792    -1.826961166315     0.597490029002
    H            1.588183671131    -0.465875468456     1.668687680562
    H            2.047095752169    -0.177953149434    -0.003927097292
    C            1.472339759916    -0.831913957745     0.650556241433

	Cleaning optimization helper files.

*** Psi4 exiting successfully. Buy a developer a beer!
