
    -----------------------------------------------------------------------
          Psi4: An Open-Source Ab Initio Electronic Structure Package
                               Psi4 1.1 release

                         Git: Rev {HEAD} add49b9 


    R. M. Parrish, L. A. Burns, D. G. A. Smith, A. C. Simmonett,
    A. E. DePrince III, E. G. Hohenstein, U. Bozkaya, A. Yu. Sokolov,
    R. Di Remigio, R. M. Richard, J. F. Gonthier, A. M. James,
    H. R. McAlexander, A. Kumar, M. Saitow, X. Wang, B. P. Pritchard,
    P. Verma, H. F. Schaefer III, K. Patkowski, R. A. King, E. F. Valeev,
    F. A. Evangelista, J. M. Turney, T. D. Crawford, and C. D. Sherrill,
    J. Chem. Theory Comput. in press (2017).
    (doi: 10.1021/acs.jctc.7b00174)

    -----------------------------------------------------------------------


    Psi4 started on: Wednesday, 14 June 2017 02:21PM

    Process ID:  13691
    PSIDATADIR: /cbio/jclab/home/chayas/anaconda/envs/py35/share/psi4
    Memory:     500.0 MiB
    Threads:    1
    
  ==> Input File <==

--------------------------------------------------------------------------

memory 5000 mb

molecule butane {
  symmetry C1
  0 1 
  H      1.662   2.275   -8.559
  H      2.056   1.366   -9.999
  H      1.674   0.529   -8.514
  C      2.142   1.395   -8.932
  H      4.169   2.051   -9.210
  H      3.731   1.788   -7.539
  C      3.631   1.416   -8.537
  H      3.665   -0.647   -7.940
  H      4.104   -0.384   -9.610
  C      4.203   -0.012   -8.612
  H      6.088   -0.983   -8.270
  H      5.791   0.381   -7.220
  H      6.230   0.644   -8.890
  C      5.691   0.009   -8.218
  units Angstrom
}

dih_string = "10 7 4 3 40"
set optking fixed_dihedral = $dih_string

optimize('MP2/aug-cc-pvtz')
--------------------------------------------------------------------------

  Memory set to   4.657 GiB by Python driver.
gradient() will perform analytic gradient computation.

*** tstart() called on gpu-2-9.local
*** at Wed Jun 14 14:21:22 2017

    SCF Algorithm Type (re)set to DF.

*** tstart() called on gpu-2-9.local
*** at Wed Jun 14 14:21:22 2017

   => Loading Basis Set <=

    Name: AUG-CC-PVTZ
    Role: ORBITAL
    Keyword: BASIS
    atoms 1-3, 5-6, 8-9, 11-13 entry H          line    34 file /cbio/jclab/home/chayas/anaconda/envs/py35/share/psi4/basis/aug-cc-pvtz.gbs 
    atoms 4, 7, 10, 14         entry C          line   221 file /cbio/jclab/home/chayas/anaconda/envs/py35/share/psi4/basis/aug-cc-pvtz.gbs 


         ---------------------------------------------------------
                                   SCF
            by Justin Turney, Rob Parrish, and Andy Simmonett
                              RHF Reference
                        1 Threads,   4768 MiB Core
         ---------------------------------------------------------

  ==> Geometry <==

    Molecular point group: c1
    Full point group: C1

    Geometry (in Angstrom), charge = 0, multiplicity = 1:

       Center              X                  Y                   Z               Mass       
    ------------   -----------------  -----------------  -----------------  -----------------
           H         -2.254793382205     1.573000000000     0.015810735087     1.007825032070
           H         -1.860793382205     0.664000000000    -1.424189264913     1.007825032070
           H         -2.242793382205    -0.173000000000     0.060810735087     1.007825032070
           C         -1.774793382205     0.693000000000    -0.357189264913    12.000000000000
           H          0.252206617795     1.349000000000    -0.635189264913     1.007825032070
           H         -0.185793382205     1.086000000000     1.035810735087     1.007825032070
           C         -0.285793382205     0.714000000000     0.037810735087    12.000000000000
           H         -0.251793382205    -1.349000000000     0.634810735087     1.007825032070
           H          0.187206617795    -1.086000000000    -1.035189264913     1.007825032070
           C          0.286206617795    -0.714000000000    -0.037189264913    12.000000000000
           H          2.171206617795    -1.685000000000     0.304810735087     1.007825032070
           H          1.874206617795    -0.321000000000     1.354810735087     1.007825032070
           H          2.313206617795    -0.058000000000    -0.315189264913     1.007825032070
           C          1.774206617795    -0.693000000000     0.356810735087    12.000000000000

  Running in c1 symmetry.

  Rotational constants: A =      0.76941  B =      0.12465  C =      0.11638 [cm^-1]
  Rotational constants: A =  23066.42263  B =   3736.78035  C =   3488.97419 [MHz]
  Nuclear repulsion =  131.827015400446385

  Charge       = 0
  Multiplicity = 1
  Electrons    = 34
  Nalpha       = 17
  Nbeta        = 17

  ==> Algorithm <==

  SCF Algorithm Type is DF.
  DIIS enabled.
  MOM disabled.
  Fractional occupation disabled.
  Guess Type is SAD.
  Energy threshold   = 1.00e-10
  Density threshold  = 1.00e-10
  Integral threshold = 0.00e+00

  ==> Primary Basis <==

  Basis Set: AUG-CC-PVTZ
    Blend: AUG-CC-PVTZ
    Number of shells: 146
    Number of basis function: 414
    Number of Cartesian functions: 470
    Spherical Harmonics?: true
    Max angular momentum: 3

   => Loading Basis Set <=

    Name: (AUG-CC-PVTZ AUX)
    Role: JKFIT
    Keyword: DF_BASIS_SCF
    atoms 1-3, 5-6, 8-9, 11-13 entry H          line    69 file /cbio/jclab/home/chayas/anaconda/envs/py35/share/psi4/basis/aug-cc-pvtz-jkfit.gbs 
    atoms 4, 7, 10, 14         entry C          line   161 file /cbio/jclab/home/chayas/anaconda/envs/py35/share/psi4/basis/aug-cc-pvtz-jkfit.gbs 

  ==> Pre-Iterations <==

   -------------------------------------------------------
    Irrep   Nso     Nmo     Nalpha   Nbeta   Ndocc  Nsocc
   -------------------------------------------------------
     A        414     414       0       0       0       0
   -------------------------------------------------------
    Total     414     414      17      17      17       0
   -------------------------------------------------------

  ==> Integral Setup <==

  ==> DFJK: Density-Fitted J/K Matrices <==

    J tasked:                  Yes
    K tasked:                  Yes
    wK tasked:                  No
    OpenMP threads:              1
    Integrals threads:           1
    Memory (MB):              3576
    Algorithm:                Core
    Integral Cache:           NONE
    Schwarz Cutoff:          1E-12
    Fitting Condition:       1E-12

   => Auxiliary Basis Set <=

  Basis Set: (AUG-CC-PVTZ AUX)
    Blend: AUG-CC-PVTZ-JKFIT
    Number of shells: 260
    Number of basis function: 876
    Number of Cartesian functions: 1074
    Spherical Harmonics?: true
    Max angular momentum: 4

  Minimum eigenvalue in the overlap matrix is 8.3454448484E-06.
  Using Symmetric Orthogonalization.

  SCF Guess: Superposition of Atomic Densities via on-the-fly atomic UHF.

  ==> Iterations <==

                           Total Energy        Delta E     RMS |[F,P]|

   @DF-RHF iter   0:  -159.08715209301295   -1.59087e+02   9.62988e-03 
   @DF-RHF iter   1:  -157.25981942665970    1.82733e+00   8.14855e-04 
   @DF-RHF iter   2:  -157.34230029939499   -8.24809e-02   2.33140e-04 DIIS
   @DF-RHF iter   3:  -157.35033047889877   -8.03018e-03   9.00796e-05 DIIS
   @DF-RHF iter   4:  -157.35135132744844   -1.02085e-03   2.02343e-05 DIIS
   @DF-RHF iter   5:  -157.35142565603320   -7.43286e-05   3.83883e-06 DIIS
   @DF-RHF iter   6:  -157.35142917560410   -3.51957e-06   7.05562e-07 DIIS
   @DF-RHF iter   7:  -157.35142927525743   -9.96533e-08   1.66921e-07 DIIS
   @DF-RHF iter   8:  -157.35142928017189   -4.91445e-09   4.31683e-08 DIIS
   @DF-RHF iter   9:  -157.35142928050217   -3.30289e-10   1.18203e-08 DIIS
   @DF-RHF iter  10:  -157.35142928052980   -2.76259e-11   2.58140e-09 DIIS
   @DF-RHF iter  11:  -157.35142928053108   -1.27898e-12   5.84426e-10 DIIS
   @DF-RHF iter  12:  -157.35142928053324   -2.16005e-12   1.70709e-10 DIIS
   @DF-RHF iter  13:  -157.35142928053057    2.67164e-12   4.73279e-11 DIIS

  ==> Post-Iterations <==

    Orbital Energies (a.u.)
    -----------------------

    Doubly Occupied:                                                      

       1A    -11.207033     2A    -11.206351     3A    -11.198550  
       4A    -11.198322     5A     -1.070687     6A     -0.981130  
       7A     -0.861521     8A     -0.795033     9A     -0.647259  
      10A     -0.587726    11A     -0.575525    12A     -0.570982  
      13A     -0.514133    14A     -0.503481    15A     -0.475211  
      16A     -0.468695    17A     -0.441454  

    Virtual:                                                              

      18A      0.032282    19A      0.037232    20A      0.039541  
      21A      0.040796    22A      0.057051    23A      0.058523  
      24A      0.059791    25A      0.061040    26A      0.081897  
      27A      0.083320    28A      0.098533    29A      0.112475  
      30A      0.123181    31A      0.130712    32A      0.136172  
      33A      0.142048    34A      0.143282    35A      0.146389  
      36A      0.148380    37A      0.159851    38A      0.161397  
      39A      0.167262    40A      0.170860    41A      0.202006  
      42A      0.209114    43A      0.210892    44A      0.229826  
      45A      0.247404    46A      0.249622    47A      0.252607  
      48A      0.269624    49A      0.276773    50A      0.282679  
      51A      0.284367    52A      0.315463    53A      0.318117  
      54A      0.330946    55A      0.337015    56A      0.342376  
      57A      0.351147    58A      0.357668    59A      0.358499  
      60A      0.362677    61A      0.373580    62A      0.374606  
      63A      0.383306    64A      0.386864    65A      0.389916  
      66A      0.391995    67A      0.396831    68A      0.402380  
      69A      0.407430    70A      0.413702    71A      0.422517  
      72A      0.429669    73A      0.443716    74A      0.448948  
      75A      0.455780    76A      0.462068    77A      0.464045  
      78A      0.465126    79A      0.474866    80A      0.481303  
      81A      0.487524    82A      0.493763    83A      0.501494  
      84A      0.504071    85A      0.509197    86A      0.513271  
      87A      0.520283    88A      0.533035    89A      0.533570  
      90A      0.537404    91A      0.545467    92A      0.560162  
      93A      0.567501    94A      0.572954    95A      0.586508  
      96A      0.591672    97A      0.602471    98A      0.611272  
      99A      0.621912   100A      0.631691   101A      0.638879  
     102A      0.660654   103A      0.681072   104A      0.686388  
     105A      0.700877   106A      0.712269   107A      0.762593  
     108A      0.779026   109A      0.797306   110A      0.814662  
     111A      0.822422   112A      0.827727   113A      0.836774  
     114A      0.844771   115A      0.849391   116A      0.860326  
     117A      0.864600   118A      0.867265   119A      0.886298  
     120A      0.892287   121A      0.897168   122A      0.902819  
     123A      0.906460   124A      0.922390   125A      0.926962  
     126A      0.931562   127A      0.937123   128A      0.943443  
     129A      0.944284   130A      0.960493   131A      0.967102  
     132A      0.971361   133A      0.978756   134A      0.986349  
     135A      0.994225   136A      1.015030   137A      1.019772  
     138A      1.035036   139A      1.048915   140A      1.065625  
     141A      1.071869   142A      1.081292   143A      1.093896  
     144A      1.110574   145A      1.114055   146A      1.123844  
     147A      1.130769   148A      1.133617   149A      1.141619  
     150A      1.159142   151A      1.164210   152A      1.166586  
     153A      1.176865   154A      1.193170   155A      1.202081  
     156A      1.219835   157A      1.224181   158A      1.231884  
     159A      1.246418   160A      1.256463   161A      1.260903  
     162A      1.265226   163A      1.273552   164A      1.279890  
     165A      1.296160   166A      1.304031   167A      1.321521  
     168A      1.327624   169A      1.342040   170A      1.352973  
     171A      1.360502   172A      1.388590   173A      1.401097  
     174A      1.424009   175A      1.432333   176A      1.441820  
     177A      1.462378   178A      1.482646   179A      1.499493  
     180A      1.508009   181A      1.522220   182A      1.526548  
     183A      1.551729   184A      1.559313   185A      1.563418  
     186A      1.586532   187A      1.593637   188A      1.616355  
     189A      1.632367   190A      1.645779   191A      1.649836  
     192A      1.652142   193A      1.677463   194A      1.692741  
     195A      1.695435   196A      1.702761   197A      1.711541  
     198A      1.721287   199A      1.733443   200A      1.743613  
     201A      1.745107   202A      1.759482   203A      1.765963  
     204A      1.777912   205A      1.782795   206A      1.795606  
     207A      1.797776   208A      1.809747   209A      1.822020  
     210A      1.846412   211A      1.864378   212A      1.872309  
     213A      1.890486   214A      1.904229   215A      1.915869  
     216A      1.927118   217A      1.961338   218A      1.974933  
     219A      1.986588   220A      1.993158   221A      2.001193  
     222A      2.009029   223A      2.033316   224A      2.043556  
     225A      2.048900   226A      2.066917   227A      2.092326  
     228A      2.102779   229A      2.124158   230A      2.145251  
     231A      2.162700   232A      2.193837   233A      2.196633  
     234A      2.207769   235A      2.243187   236A      2.256038  
     237A      2.264310   238A      2.281137   239A      2.301426  
     240A      2.310257   241A      2.333339   242A      2.336010  
     243A      2.348612   244A      2.359601   245A      2.372253  
     246A      2.375732   247A      2.424779   248A      2.444880  
     249A      2.466810   250A      2.479378   251A      2.506796  
     252A      2.554275   253A      2.603543   254A      2.622497  
     255A      2.640179   256A      2.663411   257A      2.716341  
     258A      2.889598   259A      2.923742   260A      3.009714  
     261A      3.235506   262A      3.249432   263A      3.302847  
     264A      3.371768   265A      3.389674   266A      3.421355  
     267A      3.451221   268A      3.454968   269A      3.470961  
     270A      3.485121   271A      3.525202   272A      3.543045  
     273A      3.572098   274A      3.572440   275A      3.596970  
     276A      3.609267   277A      3.629723   278A      3.664715  
     279A      3.685437   280A      3.694929   281A      3.714820  
     282A      3.719534   283A      3.737014   284A      3.743401  
     285A      3.757438   286A      3.769940   287A      3.779504  
     288A      3.799675   289A      3.810428   290A      3.824002  
     291A      3.846371   292A      3.858416   293A      3.877582  
     294A      3.888954   295A      3.915879   296A      3.928607  
     297A      3.939940   298A      3.949727   299A      3.976952  
     300A      3.996901   301A      4.008488   302A      4.016816  
     303A      4.022626   304A      4.024948   305A      4.049354  
     306A      4.058686   307A      4.072044   308A      4.084745  
     309A      4.124624   310A      4.183101   311A      4.198522  
     312A      4.212238   313A      4.231341   314A      4.240303  
     315A      4.252199   316A      4.276913   317A      4.280279  
     318A      4.290128   319A      4.309835   320A      4.333264  
     321A      4.339418   322A      4.372934   323A      4.381553  
     324A      4.411098   325A      4.427141   326A      4.443149  
     327A      4.526903   328A      4.551541   329A      4.577372  
     330A      4.590153   331A      4.632694   332A      4.666048  
     333A      4.687184   334A      4.698489   335A      4.718874  
     336A      4.736226   337A      4.745932   338A      4.751216  
     339A      4.773658   340A      4.795395   341A      4.808220  
     342A      4.861858   343A      4.869241   344A      4.884175  
     345A      4.889942   346A      4.916059   347A      4.942059  
     348A      4.955264   349A      4.974501   350A      5.006734  
     351A      5.043538   352A      5.069425   353A      5.084174  
     354A      5.094389   355A      5.131165   356A      5.171371  
     357A      5.180932   358A      5.200244   359A      5.207623  
     360A      5.238228   361A      5.254722   362A      5.270970  
     363A      5.276710   364A      5.310447   365A      5.319074  
     366A      5.339386   367A      5.390939   368A      5.413522  
     369A      5.439211   370A      5.449979   371A      5.458755  
     372A      5.468089   373A      5.499470   374A      5.519196  
     375A      5.584433   376A      5.602880   377A      5.624895  
     378A      5.644090   379A      5.680349   380A      5.684303  
     381A      5.698472   382A      5.757945   383A      5.777610  
     384A      5.790820   385A      5.821042   386A      5.861213  
     387A      5.906070   388A      5.920631   389A      5.957867  
     390A      6.025061   391A      6.120602   392A      6.157345  
     393A      6.174488   394A      6.191153   395A      6.245454  
     396A      6.263573   397A      6.271198   398A      6.315430  
     399A      6.318280   400A      6.358127   401A      6.408165  
     402A      6.437829   403A      6.557058   404A      6.569975  
     405A      6.747998   406A      6.784502   407A      6.830451  
     408A      6.849868   409A      6.857411   410A      6.984205  
     411A     18.073312   412A     18.380445   413A     18.668654  
     414A     18.951621  

    Final Occupation by Irrep:
              A 
    DOCC [    17 ]

  Energy converged.

  @DF-RHF Final Energy:  -157.35142928053057

   => Energetics <=

    Nuclear Repulsion Energy =            131.8270154004463848
    One-Electron Energy =                -471.7507000377325426
    Two-Electron Energy =                 182.5722553567555906
    DFT Exchange-Correlation Energy =       0.0000000000000000
    Empirical Dispersion Energy =           0.0000000000000000
    PCM Polarization Energy =               0.0000000000000000
    EFP Energy =                            0.0000000000000000
    Total Energy =                       -157.3514292805305672



Properties will be evaluated at   0.000000,   0.000000,   0.000000 Bohr

Properties computed using the SCF density matrix

  Nuclear Dipole Moment: (a.u.)
     X:     0.0019      Y:     0.0000      Z:    -0.0027

  Electronic Dipole Moment: (a.u.)
     X:    -0.0014      Y:    -0.0001      Z:     0.0018

  Dipole Moment: (a.u.)
     X:     0.0006      Y:    -0.0001      Z:    -0.0009     Total:     0.0011

  Dipole Moment: (Debye)
     X:     0.0014      Y:    -0.0002      Z:    -0.0024     Total:     0.0028


*** tstop() called on gpu-2-9.local at Wed Jun 14 14:24:18 2017
Module time:
	user time   =     102.56 seconds =       1.71 minutes
	system time =       0.64 seconds =       0.01 minutes
	total time  =        176 seconds =       2.93 minutes
Total time:
	user time   =     102.57 seconds =       1.71 minutes
	system time =       0.64 seconds =       0.01 minutes
	total time  =        176 seconds =       2.93 minutes

  //>>>>>>>>>>>>>>>>>>>>>>>>>>>>>>>>>>>//
  //               DFMP2               //
  //<<<<<<<<<<<<<<<<<<<<<<<<<<<<<<<<<<<//

   => Loading Basis Set <=

    Name: (AUG-CC-PVTZ AUX)
    Role: RIFIT
    Keyword: DF_BASIS_MP2
    atoms 1-3, 5-6, 8-9, 11-13 entry H          line    29 file /cbio/jclab/home/chayas/anaconda/envs/py35/share/psi4/basis/aug-cc-pvtz-ri.gbs 
    atoms 4, 7, 10, 14         entry C          line   147 file /cbio/jclab/home/chayas/anaconda/envs/py35/share/psi4/basis/aug-cc-pvtz-ri.gbs 

	 --------------------------------------------------------
	                          DF-MP2                         
	      2nd-Order Density-Fitted Moller-Plesset Theory     
	              RMP2 Wavefunction,   1 Threads             
	                                                         
	        Rob Parrish, Justin Turney, Andy Simmonett,      
	           Ed Hohenstein, and C. David Sherrill          
	 --------------------------------------------------------

   => Auxiliary Basis Set <=

  Basis Set: (AUG-CC-PVTZ AUX)
    Blend: AUG-CC-PVTZ-RI
    Number of shells: 252
    Number of basis function: 884
    Number of Cartesian functions: 1094
    Spherical Harmonics?: true
    Max angular momentum: 4

	 --------------------------------------------------------
	                 NBF =   414, NAUX =   884
	 --------------------------------------------------------
	   CLASS    FOCC     OCC    AOCC    AVIR     VIR    FVIR
	   PAIRS       0      17      17     397     397       0
	 --------------------------------------------------------


         ------------------------------------------------------------
                                     CPHF                           
                                  Rob Parrish                       
         ------------------------------------------------------------

  ==> Geometry <==

    Molecular point group: c1
    Full point group: C1

    Geometry (in Angstrom), charge = 0, multiplicity = 1:

       Center              X                  Y                   Z               Mass       
    ------------   -----------------  -----------------  -----------------  -----------------
           H         -2.254793382205     1.573000000000     0.015810735087     1.007825032070
           H         -1.860793382205     0.664000000000    -1.424189264913     1.007825032070
           H         -2.242793382205    -0.173000000000     0.060810735087     1.007825032070
           C         -1.774793382205     0.693000000000    -0.357189264913    12.000000000000
           H          0.252206617795     1.349000000000    -0.635189264913     1.007825032070
           H         -0.185793382205     1.086000000000     1.035810735087     1.007825032070
           C         -0.285793382205     0.714000000000     0.037810735087    12.000000000000
           H         -0.251793382205    -1.349000000000     0.634810735087     1.007825032070
           H          0.187206617795    -1.086000000000    -1.035189264913     1.007825032070
           C          0.286206617795    -0.714000000000    -0.037189264913    12.000000000000
           H          2.171206617795    -1.685000000000     0.304810735087     1.007825032070
           H          1.874206617795    -0.321000000000     1.354810735087     1.007825032070
           H          2.313206617795    -0.058000000000    -0.315189264913     1.007825032070
           C          1.774206617795    -0.693000000000     0.356810735087    12.000000000000

  Nuclear repulsion =  131.827015400446385
  Reference energy  = -157.351429280530567

  ==> Basis Set <==

  Basis Set: AUG-CC-PVTZ
    Blend: AUG-CC-PVTZ
    Number of shells: 146
    Number of basis function: 414
    Number of Cartesian functions: 470
    Spherical Harmonics?: true
    Max angular momentum: 3

  ==> CGRSolver (by Rob Parrish) <==

   Number of roots    =         1
   Preconditioning    =    JACOBI
   Convergence cutoff =     1E-06
   Maximum iterations =       100

  ==> CPHFRHamiltonian (by Rob Parrish) <== 

  ==> DFJK: Density-Fitted J/K Matrices <==

    J tasked:                  Yes
    K tasked:                  Yes
    wK tasked:                  No
    OpenMP threads:              1
    Integrals threads:           1
    Memory (MB):              3576
    Algorithm:                Core
    Integral Cache:           NONE
    Schwarz Cutoff:          1E-12
    Fitting Condition:       1E-12

   => Auxiliary Basis Set <=

  Basis Set: (AUG-CC-PVTZ AUX)
    Blend: AUG-CC-PVTZ-JKFIT
    Number of shells: 260
    Number of basis function: 876
    Number of Cartesian functions: 1074
    Spherical Harmonics?: true
    Max angular momentum: 4

  ==> CPHF Iterations <==

  => Iterations <=

             Iter  Converged  Remaining    Residual
  CGR           1          0          1   8.159E-02
  CGR           2          0          1   1.305E-02
  CGR           3          0          1   3.412E-03
  CGR           4          0          1   8.050E-04
  CGR           5          0          1   1.184E-04
  CGR           6          0          1   2.125E-05
  CGR           7          0          1   3.735E-06
  CGR           8          1          0   8.292E-07

    CGRSolver converged.

  ==> DFCorrGrad: Density-Fitted Correlated Gradients <==

    OpenMP threads:              1
    Integrals threads:           1
    Memory (MB):              3576
    Schwarz Cutoff:          0E+00
    Fitting Condition:       1E-12

   => Auxiliary Basis Set <=

  Basis Set: (AUG-CC-PVTZ AUX)
    Blend: AUG-CC-PVTZ-JKFIT
    Number of shells: 260
    Number of basis function: 876
    Number of Cartesian functions: 1074
    Spherical Harmonics?: true
    Max angular momentum: 4

	-----------------------------------------------------------
	 ==================> DF-MP2 Energies <==================== 
	-----------------------------------------------------------
	 Reference Energy          =    -157.3514292805305672 [Eh]
	 Singles Energy            =      -0.0000000000000000 [Eh]
	 Same-Spin Energy          =      -0.1653995090180450 [Eh]
	 Opposite-Spin Energy      =      -0.6388829703549100 [Eh]
	 Correlation Energy        =      -0.8042824793729551 [Eh]
	 Total Energy              =    -158.1557117599035109 [Eh]
	-----------------------------------------------------------
	 ================> DF-SCS-MP2 Energies <================== 
	-----------------------------------------------------------
	 SCS Same-Spin Scale       =       0.3333333333333333 [-]
	 SCS Opposite-Spin Scale   =       1.2000000000000000 [-]
	 SCS Same-Spin Energy      =      -0.0551331696726817 [Eh]
	 SCS Opposite-Spin Energy  =      -0.7666595644258920 [Eh]
	 SCS Correlation Energy    =      -0.8217927340985737 [Eh]
	 SCS Total Energy          =    -158.1732220146291468 [Eh]
	-----------------------------------------------------------


  -Total Gradient:
     Atom            X                  Y                   Z
    ------   -----------------  -----------------  -----------------
       1        0.009292846998    -0.009223261589    -0.001446952325
       2        0.003749830835     0.001325365669     0.010558308038
       3        0.007579025562     0.008656590310    -0.004459463299
       4       -0.023947728089    -0.006283018966    -0.006166255644
       5       -0.007905019343    -0.008584170764     0.005199997324
       6       -0.003534388348    -0.004783931442    -0.011574037537
       7        0.020736989972     0.030982406339     0.009916426600
       8        0.007948025456     0.008069999847    -0.006451273360
       9        0.003454851845     0.005853248731     0.011711831420
      10       -0.022617551207    -0.031549768317    -0.009764428120
      11       -0.008418354515     0.010012814551    -0.000644475064
      12       -0.003175766337    -0.004034392209    -0.010997819025
      13       -0.007681960656    -0.006542653569     0.006175851642
      14        0.024519197828     0.006100771410     0.007942289348


*** tstop() called on gpu-2-9.local at Wed Jun 14 14:30:52 2017
Module time:
	user time   =     475.99 seconds =       7.93 minutes
	system time =       4.37 seconds =       0.07 minutes
	total time  =        570 seconds =       9.50 minutes
Total time:
	user time   =     476.00 seconds =       7.93 minutes
	system time =       4.37 seconds =       0.07 minutes
	total time  =        570 seconds =       9.50 minutes

			-----------------------------------------
			 OPTKING 2.0: for geometry optimizations 
			  - R.A. King,  Bethel University        
			-----------------------------------------

	Internal coordinates to be generated automatically.
	Detected frag 1 with atoms:  1 2 3 4 5 6 7 8 9 10 11 12 13 14
	---Fragment 1 Bond Connectivity---
	 1 : 4
	 2 : 4
	 3 : 4
	 4 : 1 2 3 7
	 5 : 7
	 6 : 7
	 7 : 4 5 6 10
	 8 : 10
	 9 : 10
	 10 : 7 8 9 14
	 11 : 14
	 12 : 14
	 13 : 14
	 14 : 10 11 12 13

	Assuming in current code that numbering for constraints corresponds to unified fragment.
	Fixed dihedral atom list: 
	    10     7     4     3
	---Fragment 1 Geometry and Gradient---
	 H          -4.2609419786        2.9725392070        0.0298779593
	 H          -3.5163898823        1.2547781522       -2.6913276721
	 H          -4.2382652650       -0.3269226210        0.1149156353
	 C          -3.3538734348        1.3095802101       -0.6749898883
	 H           0.4766014365        2.5492405533       -1.2003337532
	 H          -0.3510986097        2.0522425803        1.9573986148
	 C          -0.5400712230        1.3492644589        0.0714519342
	 H          -0.4758205344       -2.5492405533        1.1996184355
	 H           0.3537692379       -2.0522425803       -1.9562242064
	 C           0.5408521251       -1.3492644589       -0.0702775258
	 H           4.1029858855       -3.1841885339        0.5760088117
	 H           3.5417372241       -0.6066020887        2.5602212512
	 H           4.3713269964       -0.1096041157       -0.5956213907
	 C           3.3527646108       -1.3095802101        0.6742745706
	             0.0092928470       -0.0092232616       -0.0014469523
	             0.0037498308        0.0013253657        0.0105583080
	             0.0075790256        0.0086565903       -0.0044594633
	            -0.0239477281       -0.0062830190       -0.0061662556
	            -0.0079050193       -0.0085841708        0.0051999973
	            -0.0035343883       -0.0047839314       -0.0115740375
	             0.0207369900        0.0309824063        0.0099164266
	             0.0079480255        0.0080699998       -0.0064512734
	             0.0034548518        0.0058532487        0.0117118314
	            -0.0226175512       -0.0315497683       -0.0097644281
	            -0.0084183545        0.0100128146       -0.0006444751
	            -0.0031757663       -0.0040343922       -0.0109978190
	            -0.0076819607       -0.0065426536        0.0061758516
	             0.0245191978        0.0061007714        0.0079422893

	Previous optimization step data not found.  Starting new optimization.

	---Fragment 1 Intrafragment Coordinates---
	 - Coordinate -           - BOHR/RAD -       - ANG/DEG -
	 R(1,4)           =         2.021149	       1.069546
	 R(2,4)           =         2.023619	       1.070853
	 R(3,4)           =         2.020951	       1.069441
	 R(4,7)           =         2.911397	       1.540645
	 R(5,7)           =         2.022623	       1.070326
	 R(6,7)           =         2.021555	       1.069761
	 R(7,10)          =         2.910419	       1.540128
	 R(8,10)          =         2.021436	       1.069698
	 R(9,10)          =         2.021379	       1.069668
	 R(10,14)         =         2.909087	       1.539422
	 R(11,14)         =         2.021545	       1.069756
	 R(12,14)         =         2.021555	       1.069761
	 R(13,14)         =         2.022387	       1.070201
	 B(1,4,2)         =         1.911055	     109.495389
	 B(1,4,3)         =         1.910869	     109.484708
	 B(1,4,7)         =         1.910402	     109.457994
	 B(2,4,3)         =         1.909620	     109.413177
	 B(2,4,7)         =         1.910757	     109.478340
	 B(3,4,7)         =         1.911096	     109.497719
	 B(4,7,5)         =         1.909937	     109.431343
	 B(4,7,6)         =         1.911630	     109.528316
	 B(4,7,10)        =         1.911154	     109.501062
	 B(5,7,6)         =         1.910605	     109.469614
	 B(5,7,10)        =         1.910047	     109.437654
	 B(6,7,10)        =         1.910425	     109.459295
	 B(7,10,8)        =         1.910303	     109.452301
	 B(7,10,9)        =         1.910824	     109.482155
	 B(7,10,14)       =         1.911213	     109.504437
	 B(8,10,9)        =         1.910417	     109.458846
	 B(8,10,14)       =         1.910766	     109.478806
	 B(9,10,14)       =         1.910276	     109.450772
	 B(10,14,11)      =         1.910943	     109.488965
	 B(10,14,12)      =         1.911204	     109.503926
	 B(10,14,13)      =         1.911557	     109.524173
	 B(11,14,12)      =         1.910410	     109.458432
	 B(11,14,13)      =         1.910054	     109.438058
	 B(12,14,13)      =         1.909629	     109.413709
	 D(1,4,7,5)       =        -1.396625	     -80.020745
	 D(1,4,7,6)       =         0.697919	      39.987807
	 D(1,4,7,10)      =         2.792990	     160.026514
	 D(2,4,7,5)       =         0.698221	      40.005114
	 D(2,4,7,6)       =         2.792765	     160.013666
	 D(2,4,7,10)      =        -1.395349	     -79.947627
	 D(3,4,7,5)       =         2.791735	     159.954608
	 D(3,4,7,6)       =        -1.396906	     -80.036840
	 D(3,4,7,10)      =         0.698164	      40.001868
	 D(4,7,10,8)      =        -1.047368	     -60.009777
	 D(4,7,10,9)      =         1.046677	      59.970178
	 D(4,7,10,14)     =         3.141107	     179.972182
	 D(5,7,10,8)      =        -3.140871	    -179.958653
	 D(5,7,10,9)      =        -1.046826	     -59.978698
	 D(5,7,10,14)     =         1.047604	      60.023306
	 D(6,7,10,8)      =         1.048439	      60.071149
	 D(6,7,10,9)      =        -3.140701	    -179.948896
	 D(6,7,10,14)     =        -1.046271	     -59.946893
	 D(7,10,14,11)    =         3.141408	     179.989448
	 D(7,10,14,12)    =         1.046747	      59.974196
	 D(7,10,14,13)    =        -1.047335	     -60.007849
	 D(8,10,14,11)    =         1.046982	      59.987626
	 D(8,10,14,12)    =        -1.047680	     -60.027626
	 D(8,10,14,13)    =         3.141424	     179.990329
	 D(9,10,14,11)    =        -1.047012	     -59.989345
	 D(9,10,14,12)    =         3.141512	     179.995403
	 D(9,10,14,13)    =         1.047431	      60.013359

	Current energy   :      -158.1557117599

	Generating empirical Hessian (Schlegel '84) for each fragment.
	Adding user-defined constraint: Fragment 1; Coordinate 46:
		Value =     0.698164; Fixed value    =     0.698132
		Force =    -0.000016; Force constant =     0.500000
	Removing off-diagonal coupling between coordinate 46 and others.
	Taking RFO optimization step.
	Going to follow RFO solution 1.
	Using RFO vector 1.

	Determining step-restricting scale parameter for RS-RFO.
	Maximum step size allowed    0.10000

	 Iter      |step|        alpha        rfo_root  
	------------------------------------------------
	    0     0.20436       1.00000           1
	    1     0.15905       5.08752           1
	    2     0.12588      15.10064           1
	    3     0.10733      27.89391           1
	    4     0.10083      34.76346           1
	    5     0.10001      35.74689           1
	    6     0.10000      35.76215           1
	------------------------------------------------
	Norm of target step-size    0.10000
	Projected energy change by RFO approximation:        -0.0044835121

	Back-transformation to cartesian coordinates...
	Could not converge backtransformation.
	Using first guess instead.

	--- Internal Coordinate Step in ANG or DEG, aJ/ANG or AJ/DEG ---
	 ---------------------------------------------------------------------------
	   Coordinate                Previous        Force       Change         New 
	   ----------                --------       ------       ------       ------
	    1 R(1,4)          =      1.069546     0.101038     0.012355     1.081901
	    2 R(2,4)          =      1.070853     0.089451     0.010960     1.081813
	    3 R(3,4)          =      1.069441     0.099438     0.012196     1.081637
	    4 R(4,7)          =      1.540645    -0.030303    -0.004351     1.536294
	    5 R(5,7)          =      1.070326     0.101632     0.012397     1.082724
	    6 R(6,7)          =      1.069761     0.105386     0.012836     1.082596
	    7 R(7,10)         =      1.540128    -0.074896    -0.010755     1.529372
	    8 R(8,10)         =      1.069698     0.105792     0.012881     1.082579
	    9 R(9,10)         =      1.069668     0.109431     0.013324     1.082992
	   10 R(10,14)        =      1.539422    -0.047596    -0.006874     1.532548
	   11 R(11,14)        =      1.069756     0.101978     0.012454     1.082210
	   12 R(12,14)        =      1.069761     0.098534     0.012045     1.081806
	   13 R(13,14)        =      1.070201     0.095808     0.011723     1.081924
	   14 B(1,4,2)        =    109.495389    -0.000295    -0.683174   108.812214
	   15 B(1,4,3)        =    109.484708    -0.000261    -0.576801   108.907907
	   16 B(1,4,7)        =    109.457994     0.000439     1.080334   110.538328
	   17 B(2,4,3)        =    109.413177    -0.000211    -0.573846   108.839331
	   18 B(2,4,7)        =    109.478340     0.000193     0.429149   109.907488
	   19 B(3,4,7)        =    109.497719     0.000135     0.302693   109.800413
	   20 B(4,7,5)        =    109.431343    -0.000120    -0.139272   109.292071
	   21 B(4,7,6)        =    109.528316    -0.000107    -0.090446   109.437870
	   22 B(4,7,10)       =    109.501062     0.000672     1.442688   110.943750
	   23 B(5,7,6)        =    109.469614     0.000006    -0.255661   109.213953
	   24 B(5,7,10)       =    109.437654    -0.000236    -0.497891   108.939763
	   25 B(6,7,10)       =    109.459295    -0.000216    -0.471279   108.988016
	   26 B(7,10,8)       =    109.452301    -0.000227    -0.491072   108.961229
	   27 B(7,10,9)       =    109.482155    -0.000198    -0.405969   109.076187
	   28 B(7,10,14)      =    109.504437     0.000650     1.393581   110.898018
	   29 B(8,10,9)       =    109.458846     0.000014    -0.219628   109.239218
	   30 B(8,10,14)      =    109.478806    -0.000112    -0.124989   109.353817
	   31 B(9,10,14)      =    109.450772    -0.000128    -0.162107   109.288665
	   32 B(10,14,11)     =    109.488965     0.000413     1.003962   110.492927
	   33 B(10,14,12)     =    109.503926     0.000114     0.253216   109.757141
	   34 B(10,14,13)     =    109.524173     0.000128     0.289653   109.813826
	   35 B(11,14,12)     =    109.458432    -0.000243    -0.560743   108.897689
	   36 B(11,14,13)     =    109.438058    -0.000248    -0.568283   108.869775
	   37 B(12,14,13)     =    109.413709    -0.000165    -0.434939   108.978771
	   38 D(1,4,7,5)      =    -80.020745     0.000024     0.417155   -79.603591
	   39 D(1,4,7,6)      =     39.987807    -0.000006    -0.035056    39.952750
	   40 D(1,4,7,10)     =    160.026514     0.000013     0.225251   160.251765
	   41 D(2,4,7,5)      =     40.005114     0.000030     0.518176    40.523289
	   42 D(2,4,7,6)      =    160.013666     0.000000     0.065964   160.079630
	   43 D(2,4,7,10)     =    -79.947627     0.000019     0.326272   -79.621355
	   44 D(3,4,7,5)      =    159.954608     0.000017     0.264873   160.219481
	   45 D(3,4,7,6)      =    -80.036840    -0.000013    -0.187338   -80.224178
	   46 D(3,4,7,10)     =     40.001868     0.000006     0.072970    40.074837
	   47 D(4,7,10,8)     =    -60.009777     0.000024     0.327645   -59.682132
	   48 D(4,7,10,9)     =     59.970178    -0.000032    -0.477485    59.492693
	   49 D(4,7,10,14)    =    179.972182    -0.000005    -0.070182   179.902000
	   50 D(5,7,10,8)     =   -179.958653    -0.000004    -0.077510  -180.036163
	   51 D(5,7,10,9)     =    -59.978698    -0.000060    -0.882640   -60.861338
	   52 D(5,7,10,14)    =     60.023306    -0.000032    -0.475337    59.547969
	   53 D(6,7,10,8)     =     60.071149     0.000058     0.812596    60.883745
	   54 D(6,7,10,9)     =   -179.948896     0.000002     0.007467  -179.941430
	   55 D(6,7,10,14)    =    -59.946893     0.000030     0.414769   -59.532123
	   56 D(7,10,14,11)   =    179.989448    -0.000002    -0.034419   179.955028
	   57 D(7,10,14,12)   =     59.974196    -0.000008    -0.126909    59.847287
	   58 D(7,10,14,13)   =    -60.007849     0.000004     0.072294   -59.935554
	   59 D(8,10,14,11)   =     59.987626    -0.000014    -0.215059    59.772567
	   60 D(8,10,14,12)   =    -60.027626    -0.000020    -0.307548   -60.335174
	   61 D(8,10,14,13)   =    179.990329    -0.000008    -0.108345   179.881985
	   62 D(9,10,14,11)   =    -59.989345     0.000015     0.227415   -59.761930
	   63 D(9,10,14,12)   =    179.995403     0.000010     0.134925   180.130329
	   64 D(9,10,14,13)   =     60.013359     0.000022     0.334128    60.347487
	 ---------------------------------------------------------------------------
	Successfully symmetrized geometry.
	 Forces used to impose fixed constraints are not included.
	  Forces zeroed: 46 

  ==> Convergence Check <==

  Measures of convergence in internal coordinates in au.
  Criteria marked as inactive (o), active & met (*), and active & unmet ( ).
  --------------------------------------------------------------------------------------------- ~
   Step     Total Energy     Delta E     MAX Force     RMS Force      MAX Disp      RMS Disp    ~
  --------------------------------------------------------------------------------------------- ~
    Convergence Criteria    1.00e-06 *    3.00e-04 *             o    1.20e-03 *             o  ~
  --------------------------------------------------------------------------------------------- ~
      1    -158.15571176   -1.58e+02      1.33e-02      5.61e-03 o    2.52e-02      1.25e-02 o  ~
  ---------------------------------------------------------------------------------------------

	Writing optimization data to binary file.
	Structure for next step:
	Cartesian Geometry (in Angstrom)
	    H    -2.2724805530   1.5877764981   0.0123316676
	    H    -1.8749819230   0.6684441133  -1.4342141026
	    H    -2.2651876665  -0.1718779277   0.0616344006
	    C    -1.7788196634   0.6987758863  -0.3571103840
	    H     0.2532758551   1.3473542853  -0.6426454457
	    H    -0.1892623886   1.0807918363   1.0452267568
	    C    -0.2935581866   0.7044354150   0.0355271430
	    H    -0.2506172455  -1.3482571648   0.6450443223
	    H     0.1928297162  -1.0827772501  -1.0432627223
	    C     0.2954953558  -0.7052609898  -0.0334052304
	    H     2.1875175620  -1.6983866569   0.3058836658
	    H     1.8888126567  -0.3241336995   1.3651500441
	    H     2.3311703196  -0.0588497335  -0.3189224484
	    C     1.7776988103  -0.6980346121   0.3561126244
			--------------------------
			 OPTKING Finished Execution 
			--------------------------

    Structure for next step:
    Molecular point group: c1
    Full point group: C1

    Geometry (in Angstrom), charge = 0, multiplicity = 1:

    H           -2.272667895968     1.587792453244     0.012164884992
    H           -1.875169265957     0.668460068450    -1.434380885226
    H           -2.265375009406    -0.171861972559     0.061467617913
    C           -1.779007006345     0.698791841448    -0.357277166655
    H            0.253088512161     1.347370240460    -0.642812228357
    H           -0.189449731518     1.080807791380     1.045059974123
    C           -0.293745529504     0.704451370171     0.035360360405
    H           -0.250804588435    -1.348241209685     0.644877539679
    H            0.192642373271    -1.082761294978    -1.043429504912
    C            0.295308012923    -0.705245034683    -0.033572013037
    H            2.187330219096    -1.698370701740     0.305716883174
    H            1.888625313819    -0.324117744404     1.364983261429
    H            2.330982976640    -0.058833778365    -0.319089231071
    C            1.777511467393    -0.698018656932     0.355945841757

gradient() will perform analytic gradient computation.

*** tstart() called on gpu-2-9.local
*** at Wed Jun 14 14:30:52 2017

    SCF Algorithm Type (re)set to DF.

*** tstart() called on gpu-2-9.local
*** at Wed Jun 14 14:30:52 2017

   => Loading Basis Set <=

    Name: AUG-CC-PVTZ
    Role: ORBITAL
    Keyword: BASIS
    atoms 1-3, 5-6, 8-9, 11-13 entry H          line    34 file /cbio/jclab/home/chayas/anaconda/envs/py35/share/psi4/basis/aug-cc-pvtz.gbs 
    atoms 4, 7, 10, 14         entry C          line   221 file /cbio/jclab/home/chayas/anaconda/envs/py35/share/psi4/basis/aug-cc-pvtz.gbs 


         ---------------------------------------------------------
                                   SCF
            by Justin Turney, Rob Parrish, and Andy Simmonett
                              RHF Reference
                        1 Threads,   4768 MiB Core
         ---------------------------------------------------------

  ==> Geometry <==

    Molecular point group: c1
    Full point group: C1

    Geometry (in Angstrom), charge = 0, multiplicity = 1:

       Center              X                  Y                   Z               Mass       
    ------------   -----------------  -----------------  -----------------  -----------------
           H         -2.272667895968     1.587792453244     0.012164884992     1.007825032070
           H         -1.875169265957     0.668460068450    -1.434380885226     1.007825032070
           H         -2.265375009406    -0.171861972559     0.061467617913     1.007825032070
           C         -1.779007006345     0.698791841448    -0.357277166655    12.000000000000
           H          0.253088512161     1.347370240460    -0.642812228357     1.007825032070
           H         -0.189449731518     1.080807791380     1.045059974123     1.007825032070
           C         -0.293745529504     0.704451370171     0.035360360405    12.000000000000
           H         -0.250804588435    -1.348241209685     0.644877539679     1.007825032070
           H          0.192642373271    -1.082761294978    -1.043429504912     1.007825032070
           C          0.295308012923    -0.705245034683    -0.033572013037    12.000000000000
           H          2.187330219096    -1.698370701740     0.305716883174     1.007825032070
           H          1.888625313819    -0.324117744404     1.364983261429     1.007825032070
           H          2.330982976640    -0.058833778365    -0.319089231071     1.007825032070
           C          1.777511467393    -0.698018656932     0.355945841757    12.000000000000

  Running in c1 symmetry.

  Rotational constants: A =      0.77668  B =      0.12350  C =      0.11572 [cm^-1]
  Rotational constants: A =  23284.27441  B =   3702.31683  C =   3469.09362 [MHz]
  Nuclear repulsion =  131.417215562833775

  Charge       = 0
  Multiplicity = 1
  Electrons    = 34
  Nalpha       = 17
  Nbeta        = 17

  ==> Algorithm <==

  SCF Algorithm Type is DF.
  DIIS enabled.
  MOM disabled.
  Fractional occupation disabled.
  Guess Type is READ.
  Energy threshold   = 1.00e-10
  Density threshold  = 1.00e-10
  Integral threshold = 0.00e+00

  ==> Primary Basis <==

  Basis Set: AUG-CC-PVTZ
    Blend: AUG-CC-PVTZ
    Number of shells: 146
    Number of basis function: 414
    Number of Cartesian functions: 470
    Spherical Harmonics?: true
    Max angular momentum: 3

   => Loading Basis Set <=

    Name: (AUG-CC-PVTZ AUX)
    Role: JKFIT
    Keyword: DF_BASIS_SCF
    atoms 1-3, 5-6, 8-9, 11-13 entry H          line    69 file /cbio/jclab/home/chayas/anaconda/envs/py35/share/psi4/basis/aug-cc-pvtz-jkfit.gbs 
    atoms 4, 7, 10, 14         entry C          line   161 file /cbio/jclab/home/chayas/anaconda/envs/py35/share/psi4/basis/aug-cc-pvtz-jkfit.gbs 

  Reading orbitals from file 180, no projection.

  ==> Pre-Iterations <==

   -------------------------------------------------------
    Irrep   Nso     Nmo     Nalpha   Nbeta   Ndocc  Nsocc
   -------------------------------------------------------
     A        414     414       0       0       0       0
   -------------------------------------------------------
    Total     414     414      17      17      17       0
   -------------------------------------------------------

  ==> Integral Setup <==

  ==> DFJK: Density-Fitted J/K Matrices <==

    J tasked:                  Yes
    K tasked:                  Yes
    wK tasked:                  No
    OpenMP threads:              1
    Integrals threads:           1
    Memory (MB):              3576
    Algorithm:                Core
    Integral Cache:           NONE
    Schwarz Cutoff:          1E-12
    Fitting Condition:       1E-12

   => Auxiliary Basis Set <=

  Basis Set: (AUG-CC-PVTZ AUX)
    Blend: AUG-CC-PVTZ-JKFIT
    Number of shells: 260
    Number of basis function: 876
    Number of Cartesian functions: 1074
    Spherical Harmonics?: true
    Max angular momentum: 4

  Minimum eigenvalue in the overlap matrix is 8.7011602985E-06.
  Using Symmetric Orthogonalization.

  SCF Guess: Orbitals guess was supplied from a previous computation.

  ==> Iterations <==

                           Total Energy        Delta E     RMS |[F,P]|

   @DF-RHF iter   0:  -157.27728563276230   -1.57277e+02   1.23533e-04 
   @DF-RHF iter   1:  -157.35378596908225   -7.65003e-02   5.12807e-05 
   @DF-RHF iter   2:  -157.35405442778534   -2.68459e-04   2.65388e-05 DIIS
   @DF-RHF iter   3:  -157.35411148241340   -5.70546e-05   2.84589e-06 DIIS
   @DF-RHF iter   4:  -157.35411291156518   -1.42915e-06   7.64488e-07 DIIS
   @DF-RHF iter   5:  -157.35411299841570   -8.68505e-08   2.54789e-07 DIIS
   @DF-RHF iter   6:  -157.35411300831495   -9.89925e-09   4.19744e-08 DIIS
   @DF-RHF iter   7:  -157.35411300871348   -3.98529e-10   6.10905e-09 DIIS
   @DF-RHF iter   8:  -157.35411300872107   -7.58860e-12   1.08863e-09 DIIS
   @DF-RHF iter   9:  -157.35411300872042    6.53699e-13   2.52486e-10 DIIS
   @DF-RHF iter  10:  -157.35411300872178   -1.36424e-12   4.92024e-11 DIIS

  ==> Post-Iterations <==

    Orbital Energies (a.u.)
    -----------------------

    Doubly Occupied:                                                      

       1A    -11.210324     2A    -11.209684     3A    -11.203699  
       4A    -11.203561     5A     -1.071082     6A     -0.979683  
       7A     -0.860119     8A     -0.789358     9A     -0.645007  
      10A     -0.584865    11A     -0.572286    12A     -0.572102  
      13A     -0.512463    14A     -0.500007    15A     -0.469656  
      16A     -0.465302    17A     -0.449094  

    Virtual:                                                              

      18A      0.032288    19A      0.037080    20A      0.039587  
      21A      0.040810    22A      0.056989    23A      0.058502  
      24A      0.059729    25A      0.061242    26A      0.081772  
      27A      0.083274    28A      0.098514    29A      0.112389  
      30A      0.123050    31A      0.130784    32A      0.136003  
      33A      0.141694    34A      0.143293    35A      0.146315  
      36A      0.148282    37A      0.159791    38A      0.161281  
      39A      0.167596    40A      0.170933    41A      0.202044  
      42A      0.209220    43A      0.211638    44A      0.229036  
      45A      0.246127    46A      0.248747    47A      0.251091  
      48A      0.268342    49A      0.274713    50A      0.281752  
      51A      0.283496    52A      0.315603    53A      0.318174  
      54A      0.330461    55A      0.336010    56A      0.341900  
      57A      0.349962    58A      0.357259    59A      0.357326  
      60A      0.361246    61A      0.373202    62A      0.373880  
      63A      0.383046    64A      0.386448    65A      0.389599  
      66A      0.391475    67A      0.396312    68A      0.401768  
      69A      0.405275    70A      0.412804    71A      0.421981  
      72A      0.428588    73A      0.441544    74A      0.446703  
      75A      0.453037    76A      0.459547    77A      0.462296  
      78A      0.463839    79A      0.472722    80A      0.479323  
      81A      0.485952    82A      0.492466    83A      0.499245  
      84A      0.503138    85A      0.507001    86A      0.512069  
      87A      0.519973    88A      0.532554    89A      0.533925  
      90A      0.537003    91A      0.546128    92A      0.560904  
      93A      0.566970    94A      0.572010    95A      0.586550  
      96A      0.591443    97A      0.602178    98A      0.610061  
      99A      0.621982   100A      0.630032   101A      0.638903  
     102A      0.660056   103A      0.678303   104A      0.683332  
     105A      0.701250   106A      0.709333   107A      0.762607  
     108A      0.778952   109A      0.796635   110A      0.813296  
     111A      0.822085   112A      0.827531   113A      0.834849  
     114A      0.843274   115A      0.848326   116A      0.858975  
     117A      0.864053   118A      0.866711   119A      0.884077  
     120A      0.890892   121A      0.895002   122A      0.900925  
     123A      0.904670   124A      0.919549   125A      0.924095  
     126A      0.929824   127A      0.935629   128A      0.941555  
     129A      0.942175   130A      0.957574   131A      0.964471  
     132A      0.970525   133A      0.977016   134A      0.985342  
     135A      0.993842   136A      1.013793   137A      1.018327  
     138A      1.033871   139A      1.047778   140A      1.064313  
     141A      1.071463   142A      1.078818   143A      1.091696  
     144A      1.108200   145A      1.110778   146A      1.121726  
     147A      1.128471   148A      1.130915   149A      1.140714  
     150A      1.155617   151A      1.160595   152A      1.162778  
     153A      1.173508   154A      1.190263   155A      1.196955  
     156A      1.217509   157A      1.220922   158A      1.229732  
     159A      1.243850   160A      1.252795   161A      1.257925  
     162A      1.261427   163A      1.270631   164A      1.277293  
     165A      1.291668   166A      1.299333   167A      1.315943  
     168A      1.323085   169A      1.338900   170A      1.349588  
     171A      1.357291   172A      1.384624   173A      1.397621  
     174A      1.419652   175A      1.427902   176A      1.437926  
     177A      1.457866   178A      1.480187   179A      1.497163  
     180A      1.503607   181A      1.517915   182A      1.524551  
     183A      1.551051   184A      1.558165   185A      1.561556  
     186A      1.587238   187A      1.591446   188A      1.614152  
     189A      1.627460   190A      1.639495   191A      1.645458  
     192A      1.649218   193A      1.673709   194A      1.690558  
     195A      1.692217   196A      1.699771   197A      1.709197  
     198A      1.717249   199A      1.731245   200A      1.740166  
     201A      1.745971   202A      1.758693   203A      1.765342  
     204A      1.773700   205A      1.782545   206A      1.792437  
     207A      1.794365   208A      1.804989   209A      1.818438  
     210A      1.843233   211A      1.862460   212A      1.866685  
     213A      1.885189   214A      1.900408   215A      1.911947  
     216A      1.922350   217A      1.953539   218A      1.970061  
     219A      1.978150   220A      1.987700   221A      1.992595  
     222A      2.003375   223A      2.028929   224A      2.035540  
     225A      2.041163   226A      2.061955   227A      2.088200  
     228A      2.098355   229A      2.118425   230A      2.141207  
     231A      2.156132   232A      2.183646   233A      2.191917  
     234A      2.208819   235A      2.237725   236A      2.248936  
     237A      2.258407   238A      2.273846   239A      2.294917  
     240A      2.299859   241A      2.325906   242A      2.328210  
     243A      2.339839   244A      2.346235   245A      2.363241  
     246A      2.371178   247A      2.420771   248A      2.441069  
     249A      2.467834   250A      2.478815   251A      2.508126  
     252A      2.543681   253A      2.603754   254A      2.618808  
     255A      2.640720   256A      2.661969   257A      2.729094  
     258A      2.898054   259A      2.933584   260A      3.027039  
     261A      3.240470   262A      3.245590   263A      3.293485  
     264A      3.379308   265A      3.396191   266A      3.425937  
     267A      3.451979   268A      3.458995   269A      3.465898  
     270A      3.484462   271A      3.521466   272A      3.542563  
     273A      3.571124   274A      3.578575   275A      3.599724  
     276A      3.607368   277A      3.635657   278A      3.658255  
     279A      3.679945   280A      3.686362   281A      3.713050  
     282A      3.722408   283A      3.731088   284A      3.743185  
     285A      3.753104   286A      3.767747   287A      3.779619  
     288A      3.797605   289A      3.809486   290A      3.820657  
     291A      3.848095   292A      3.857725   293A      3.876191  
     294A      3.882758   295A      3.911849   296A      3.921647  
     297A      3.940368   298A      3.948121   299A      3.970891  
     300A      3.987721   301A      3.997453   302A      4.005940  
     303A      4.013791   304A      4.014028   305A      4.044386  
     306A      4.050695   307A      4.062171   308A      4.077199  
     309A      4.123260   310A      4.178407   311A      4.191775  
     312A      4.206178   313A      4.221268   314A      4.225968  
     315A      4.237594   316A      4.264389   317A      4.265626  
     318A      4.280187   319A      4.298853   320A      4.320450  
     321A      4.330949   322A      4.365230   323A      4.369513  
     324A      4.399322   325A      4.416864   326A      4.421923  
     327A      4.514521   328A      4.531697   329A      4.566012  
     330A      4.575267   331A      4.618500   332A      4.649544  
     333A      4.665315   334A      4.681737   335A      4.705227  
     336A      4.719050   337A      4.724475   338A      4.736157  
     339A      4.763883   340A      4.776664   341A      4.787314  
     342A      4.837327   343A      4.853283   344A      4.867854  
     345A      4.873821   346A      4.899472   347A      4.927834  
     348A      4.939597   349A      4.952460   350A      4.998328  
     351A      5.027538   352A      5.046304   353A      5.063213  
     354A      5.079025   355A      5.107429   356A      5.153757  
     357A      5.162322   358A      5.179998   359A      5.189212  
     360A      5.227182   361A      5.229864   362A      5.248378  
     363A      5.252088   364A      5.288756   365A      5.297074  
     366A      5.326032   367A      5.371730   368A      5.386523  
     369A      5.415519   370A      5.431267   371A      5.435490  
     372A      5.454068   373A      5.470937   374A      5.489343  
     375A      5.554481   376A      5.569446   377A      5.600639  
     378A      5.614507   379A      5.652363   380A      5.655921  
     381A      5.695156   382A      5.733963   383A      5.737981  
     384A      5.751305   385A      5.812087   386A      5.815472  
     387A      5.870869   388A      5.882636   389A      5.922947  
     390A      5.996372   391A      6.064614   392A      6.127228  
     393A      6.136500   394A      6.160745   395A      6.205222  
     396A      6.224590   397A      6.232117   398A      6.270620  
     399A      6.279414   400A      6.324916   401A      6.368102  
     402A      6.404499   403A      6.550303   404A      6.561282  
     405A      6.736259   406A      6.779475   407A      6.826869  
     408A      6.843722   409A      6.853882   410A      6.987213  
     411A     17.976449   412A     18.188102   413A     18.501292  
     414A     18.846230  

    Final Occupation by Irrep:
              A 
    DOCC [    17 ]

  Energy converged.

  @DF-RHF Final Energy:  -157.35411300872178

   => Energetics <=

    Nuclear Repulsion Energy =            131.4172155628337748
    One-Electron Energy =                -470.9460709265671312
    Two-Electron Energy =                 182.1747423550115457
    DFT Exchange-Correlation Energy =       0.0000000000000000
    Empirical Dispersion Energy =           0.0000000000000000
    PCM Polarization Energy =               0.0000000000000000
    EFP Energy =                            0.0000000000000000
    Total Energy =                       -157.3541130087217823



Properties will be evaluated at   0.000000,   0.000000,   0.000000 Bohr

Properties computed using the SCF density matrix

  Nuclear Dipole Moment: (a.u.)
     X:    -0.0007      Y:     0.0002      Z:    -0.0051

  Electronic Dipole Moment: (a.u.)
     X:     0.0015      Y:    -0.0004      Z:     0.0038

  Dipole Moment: (a.u.)
     X:     0.0007      Y:    -0.0002      Z:    -0.0013     Total:     0.0015

  Dipole Moment: (Debye)
     X:     0.0018      Y:    -0.0005      Z:    -0.0033     Total:     0.0038


*** tstop() called on gpu-2-9.local at Wed Jun 14 14:32:10 2017
Module time:
	user time   =      77.15 seconds =       1.29 minutes
	system time =       0.52 seconds =       0.01 minutes
	total time  =         78 seconds =       1.30 minutes
Total time:
	user time   =     553.24 seconds =       9.22 minutes
	system time =       4.98 seconds =       0.08 minutes
	total time  =        648 seconds =      10.80 minutes

  //>>>>>>>>>>>>>>>>>>>>>>>>>>>>>>>>>>>//
  //               DFMP2               //
  //<<<<<<<<<<<<<<<<<<<<<<<<<<<<<<<<<<<//

   => Loading Basis Set <=

    Name: (AUG-CC-PVTZ AUX)
    Role: RIFIT
    Keyword: DF_BASIS_MP2
    atoms 1-3, 5-6, 8-9, 11-13 entry H          line    29 file /cbio/jclab/home/chayas/anaconda/envs/py35/share/psi4/basis/aug-cc-pvtz-ri.gbs 
    atoms 4, 7, 10, 14         entry C          line   147 file /cbio/jclab/home/chayas/anaconda/envs/py35/share/psi4/basis/aug-cc-pvtz-ri.gbs 

	 --------------------------------------------------------
	                          DF-MP2                         
	      2nd-Order Density-Fitted Moller-Plesset Theory     
	              RMP2 Wavefunction,   1 Threads             
	                                                         
	        Rob Parrish, Justin Turney, Andy Simmonett,      
	           Ed Hohenstein, and C. David Sherrill          
	 --------------------------------------------------------

   => Auxiliary Basis Set <=

  Basis Set: (AUG-CC-PVTZ AUX)
    Blend: AUG-CC-PVTZ-RI
    Number of shells: 252
    Number of basis function: 884
    Number of Cartesian functions: 1094
    Spherical Harmonics?: true
    Max angular momentum: 4

	 --------------------------------------------------------
	                 NBF =   414, NAUX =   884
	 --------------------------------------------------------
	   CLASS    FOCC     OCC    AOCC    AVIR     VIR    FVIR
	   PAIRS       0      17      17     397     397       0
	 --------------------------------------------------------


         ------------------------------------------------------------
                                     CPHF                           
                                  Rob Parrish                       
         ------------------------------------------------------------

  ==> Geometry <==

    Molecular point group: c1
    Full point group: C1

    Geometry (in Angstrom), charge = 0, multiplicity = 1:

       Center              X                  Y                   Z               Mass       
    ------------   -----------------  -----------------  -----------------  -----------------
           H         -2.272667895968     1.587792453244     0.012164884992     1.007825032070
           H         -1.875169265957     0.668460068450    -1.434380885226     1.007825032070
           H         -2.265375009406    -0.171861972559     0.061467617913     1.007825032070
           C         -1.779007006345     0.698791841448    -0.357277166655    12.000000000000
           H          0.253088512161     1.347370240460    -0.642812228357     1.007825032070
           H         -0.189449731518     1.080807791380     1.045059974123     1.007825032070
           C         -0.293745529504     0.704451370171     0.035360360405    12.000000000000
           H         -0.250804588435    -1.348241209685     0.644877539679     1.007825032070
           H          0.192642373271    -1.082761294978    -1.043429504912     1.007825032070
           C          0.295308012923    -0.705245034683    -0.033572013037    12.000000000000
           H          2.187330219096    -1.698370701740     0.305716883174     1.007825032070
           H          1.888625313819    -0.324117744404     1.364983261429     1.007825032070
           H          2.330982976640    -0.058833778365    -0.319089231071     1.007825032070
           C          1.777511467393    -0.698018656932     0.355945841757    12.000000000000

  Nuclear repulsion =  131.417215562833775
  Reference energy  = -157.354113008721782

  ==> Basis Set <==

  Basis Set: AUG-CC-PVTZ
    Blend: AUG-CC-PVTZ
    Number of shells: 146
    Number of basis function: 414
    Number of Cartesian functions: 470
    Spherical Harmonics?: true
    Max angular momentum: 3

  ==> CGRSolver (by Rob Parrish) <==

   Number of roots    =         1
   Preconditioning    =    JACOBI
   Convergence cutoff =     1E-06
   Maximum iterations =       100

  ==> CPHFRHamiltonian (by Rob Parrish) <== 

  ==> DFJK: Density-Fitted J/K Matrices <==

    J tasked:                  Yes
    K tasked:                  Yes
    wK tasked:                  No
    OpenMP threads:              1
    Integrals threads:           1
    Memory (MB):              3576
    Algorithm:                Core
    Integral Cache:           NONE
    Schwarz Cutoff:          1E-12
    Fitting Condition:       1E-12

   => Auxiliary Basis Set <=

  Basis Set: (AUG-CC-PVTZ AUX)
    Blend: AUG-CC-PVTZ-JKFIT
    Number of shells: 260
    Number of basis function: 876
    Number of Cartesian functions: 1074
    Spherical Harmonics?: true
    Max angular momentum: 4

  ==> CPHF Iterations <==

  => Iterations <=

             Iter  Converged  Remaining    Residual
  CGR           1          0          1   8.304E-02
  CGR           2          0          1   1.324E-02
  CGR           3          0          1   3.488E-03
  CGR           4          0          1   8.145E-04
  CGR           5          0          1   1.201E-04
  CGR           6          0          1   2.185E-05
  CGR           7          0          1   3.805E-06
  CGR           8          1          0   8.518E-07

    CGRSolver converged.

  ==> DFCorrGrad: Density-Fitted Correlated Gradients <==

    OpenMP threads:              1
    Integrals threads:           1
    Memory (MB):              3576
    Schwarz Cutoff:          0E+00
    Fitting Condition:       1E-12

   => Auxiliary Basis Set <=

  Basis Set: (AUG-CC-PVTZ AUX)
    Blend: AUG-CC-PVTZ-JKFIT
    Number of shells: 260
    Number of basis function: 876
    Number of Cartesian functions: 1074
    Spherical Harmonics?: true
    Max angular momentum: 4

	-----------------------------------------------------------
	 ==================> DF-MP2 Energies <==================== 
	-----------------------------------------------------------
	 Reference Energy          =    -157.3541130087217823 [Eh]
	 Singles Energy            =      -0.0000000000000001 [Eh]
	 Same-Spin Energy          =      -0.1653445128802947 [Eh]
	 Opposite-Spin Energy      =      -0.6392913691753889 [Eh]
	 Correlation Energy        =      -0.8046358820556836 [Eh]
	 Total Energy              =    -158.1587488907774741 [Eh]
	-----------------------------------------------------------
	 ================> DF-SCS-MP2 Energies <================== 
	-----------------------------------------------------------
	 SCS Same-Spin Scale       =       0.3333333333333333 [-]
	 SCS Opposite-Spin Scale   =       1.2000000000000000 [-]
	 SCS Same-Spin Energy      =      -0.0551148376267649 [Eh]
	 SCS Opposite-Spin Energy  =      -0.7671496430104666 [Eh]
	 SCS Correlation Energy    =      -0.8222644806372316 [Eh]
	 SCS Total Energy          =    -158.1763774893590266 [Eh]
	-----------------------------------------------------------


  -Total Gradient:
     Atom            X                  Y                   Z
    ------   -----------------  -----------------  -----------------
       1        0.003476395240    -0.002527841185     0.000638064615
       2        0.002347593279     0.001267318296     0.003228911459
       3        0.003502678574     0.002231676686    -0.001466574142
       4       -0.013422640265    -0.003343056164    -0.003441168424
       5       -0.003425197369    -0.004507486805    -0.000372565011
       6       -0.002519465366    -0.002656855573    -0.003353328936
       7        0.012634223516     0.015834668893     0.005182584653
       8        0.003385004172     0.003812685799    -0.000586962230
       9        0.002636297660     0.003577536116     0.003171257764
      10       -0.013035208660    -0.016002632528    -0.004671208715
      11       -0.003360111443     0.002408766722    -0.000523078290
      12       -0.002131758275    -0.001402757204    -0.003374494803
      13       -0.003360006156    -0.002073541727     0.001287869942
      14        0.013272195092     0.003381518677     0.004280692119


*** tstop() called on gpu-2-9.local at Wed Jun 14 14:38:51 2017
Module time:
	user time   =     457.89 seconds =       7.63 minutes
	system time =       4.22 seconds =       0.07 minutes
	total time  =        479 seconds =       7.98 minutes
Total time:
	user time   =     933.98 seconds =      15.57 minutes
	system time =       8.68 seconds =       0.14 minutes
	total time  =       1049 seconds =      17.48 minutes

			-----------------------------------------
			 OPTKING 2.0: for geometry optimizations 
			  - R.A. King,  Bethel University        
			-----------------------------------------

	Previous internal coordinate definitions found.
	---Fragment 1 Geometry and Gradient---
	 H          -4.2947199144        3.0004928925        0.0229883011
	 H          -3.5435563655        1.2632064601       -2.7105870433
	 H          -4.2809383561       -0.3247720608        0.1161569639
	 C          -3.3618360305        1.3205252042       -0.6751559985
	 H           0.4782679754        2.5461607541       -1.2147390665
	 H          -0.3580081085        2.0424307280        1.9748771435
	 C          -0.5550986035        1.3312201636        0.0668213971
	 H          -0.4739519850       -2.5478066474        1.2186419392
	 H           0.3640413271       -2.0461223148       -1.9717960033
	 C           0.5580512693       -1.3327199721       -0.0634419104
	 H           4.1334550763       -3.2094554984        0.5777211834
	 H           3.5689846108       -0.6124937717        2.5794445401
	 H           4.4049194463       -0.1111797285       -0.6029912587
	 C           3.3590098714       -1.3190640972        0.6726401591
	             0.0034763952       -0.0025278412        0.0006380646
	             0.0023475933        0.0012673183        0.0032289115
	             0.0035026786        0.0022316767       -0.0014665741
	            -0.0134226403       -0.0033430562       -0.0034411684
	            -0.0034251974       -0.0045074868       -0.0003725650
	            -0.0025194654       -0.0026568556       -0.0033533289
	             0.0126342235        0.0158346689        0.0051825847
	             0.0033850042        0.0038126858       -0.0005869622
	             0.0026362977        0.0035775361        0.0031712578
	            -0.0130352087       -0.0160026325       -0.0046712087
	            -0.0033601114        0.0024087667       -0.0005230783
	            -0.0021317583       -0.0014027572       -0.0033744948
	            -0.0033600062       -0.0020735417        0.0012878699
	             0.0132721951        0.0033815187        0.0042806921

	---Fragment 1 Intrafragment Coordinates---
	 - Coordinate -           - BOHR/RAD -       - ANG/DEG -
	 R(1,4)           =         2.044497	       1.081901
	 R(2,4)           =         2.044331	       1.081813
	 R(3,4)           =         2.043998	       1.081637
	 R(4,7)           =         2.903174	       1.536294
	 R(5,7)           =         2.046051	       1.082724
	 R(6,7)           =         2.045811	       1.082596
	 R(7,10)          =         2.890095	       1.529372
	 R(8,10)          =         2.045777	       1.082579
	 R(9,10)          =         2.046558	       1.082992
	 R(10,14)         =         2.896096	       1.532548
	 R(11,14)         =         2.045081	       1.082210
	 R(12,14)         =         2.044317	       1.081806
	 R(13,14)         =         2.044541	       1.081924
	 B(1,4,2)         =         1.899131	     108.812214
	 B(1,4,3)         =         1.900802	     108.907907
	 B(1,4,7)         =         1.929258	     110.538328
	 B(2,4,3)         =         1.899605	     108.839331
	 B(2,4,7)         =         1.918248	     109.907488
	 B(3,4,7)         =         1.916379	     109.800413
	 B(4,7,5)         =         1.907506	     109.292071
	 B(4,7,6)         =         1.910051	     109.437870
	 B(4,7,10)        =         1.936334	     110.943750
	 B(5,7,6)         =         1.906143	     109.213953
	 B(5,7,10)        =         1.901358	     108.939763
	 B(6,7,10)        =         1.902200	     108.988016
	 B(7,10,8)        =         1.901732	     108.961229
	 B(7,10,9)        =         1.903739	     109.076187
	 B(7,10,14)       =         1.935536	     110.898018
	 B(8,10,9)        =         1.906584	     109.239218
	 B(8,10,14)       =         1.908584	     109.353817
	 B(9,10,14)       =         1.907447	     109.288665
	 B(10,14,11)      =         1.928465	     110.492927
	 B(10,14,12)      =         1.915623	     109.757141
	 B(10,14,13)      =         1.916613	     109.813826
	 B(11,14,12)      =         1.900623	     108.897689
	 B(11,14,13)      =         1.900136	     108.869775
	 B(12,14,13)      =         1.902038	     108.978771
	 D(1,4,7,5)       =        -1.389345	     -79.603591
	 D(1,4,7,6)       =         0.697307	      39.952750
	 D(1,4,7,10)      =         2.796921	     160.251765
	 D(2,4,7,5)       =         0.707265	      40.523289
	 D(2,4,7,6)       =         2.793917	     160.079630
	 D(2,4,7,10)      =        -1.389655	     -79.621355
	 D(3,4,7,5)       =         2.796357	     160.219481
	 D(3,4,7,6)       =        -1.400176	     -80.224178
	 D(3,4,7,10)      =         0.699438	      40.074837
	 D(4,7,10,8)      =        -1.041650	     -59.682132
	 D(4,7,10,9)      =         1.038343	      59.492693
	 D(4,7,10,14)     =         3.139882	     179.902000
	 D(5,7,10,8)      =         3.140961	     179.963837
	 D(5,7,10,9)      =        -1.062231	     -60.861338
	 D(5,7,10,14)     =         1.039308	      59.547969
	 D(6,7,10,8)      =         1.062622	      60.883745
	 D(6,7,10,9)      =        -3.140570	    -179.941430
	 D(6,7,10,14)     =        -1.039032	     -59.532123
	 D(7,10,14,11)    =         3.140808	     179.955028
	 D(7,10,14,12)    =         1.044532	      59.847287
	 D(7,10,14,13)    =        -1.046073	     -59.935554
	 D(8,10,14,11)    =         1.043228	      59.772567
	 D(8,10,14,12)    =        -1.053047	     -60.335174
	 D(8,10,14,13)    =         3.139533	     179.881985
	 D(9,10,14,11)    =        -1.043042	     -59.761930
	 D(9,10,14,12)    =        -3.139318	    -179.869671
	 D(9,10,14,13)    =         1.053262	      60.347487

	Current energy   :      -158.1587488908

	Energy change for the previous step:
		Projected    :        -0.0044835121
		Actual       :        -0.0030371309

	Performing BFGS update.
	Previous computed or guess Hessian on step 1.
	Steps to be used in Hessian update: 1
	Adding user-defined constraint: Fragment 1; Coordinate 46:
		Value =     0.699438; Fixed value    =     0.698130
		Force =    -0.000687; Force constant =     0.525000
	Removing off-diagonal coupling between coordinate 46 and others.
	Taking RFO optimization step.
	Going to follow RFO solution 1.
	Using RFO vector 1.

	Determining step-restricting scale parameter for RS-RFO.
	Maximum step size allowed    0.10000

	 Iter      |step|        alpha        rfo_root  
	------------------------------------------------
	    0     0.18367       1.00000           1
	    1     0.14696       4.84779           1
	    2     0.11840      13.77682           1
	    3     0.10414      22.61067           1
	    4     0.10029      25.87220           1
	    5     0.10000      26.13260           1
	------------------------------------------------
	Norm of target step-size    0.10000
	Projected energy change by RFO approximation:        -0.0007373719

	Back-transformation to cartesian coordinates...
	Successfully converged to displaced geometry.

	--- Internal Coordinate Step in ANG or DEG, aJ/ANG or AJ/DEG ---
	 ---------------------------------------------------------------------------
	   Coordinate                Previous        Force       Change         New 
	   ----------                --------       ------       ------       ------
	    1 R(1,4)          =      1.081901     0.028386     0.004990     1.086892
	    2 R(2,4)          =      1.081813     0.028498     0.005239     1.087052
	    3 R(3,4)          =      1.081637     0.032454     0.006025     1.087662
	    4 R(4,7)          =      1.536294    -0.034888    -0.009745     1.526548
	    5 R(5,7)          =      1.082724     0.034381     0.006410     1.089133
	    6 R(6,7)          =      1.082596     0.035376     0.006571     1.089168
	    7 R(7,10)         =      1.529372    -0.039755    -0.009786     1.519586
	    8 R(8,10)         =      1.082579     0.035756     0.006654     1.089232
	    9 R(9,10)         =      1.082992     0.036696     0.006812     1.089804
	   10 R(10,14)        =      1.532548    -0.038810    -0.010390     1.522158
	   11 R(11,14)        =      1.082210     0.028627     0.005021     1.087231
	   12 R(12,14)        =      1.081806     0.031730     0.005843     1.087649
	   13 R(13,14)        =      1.081924     0.030874     0.005691     1.087615
	   14 B(1,4,2)        =    108.812214    -0.000172    -0.710966   108.101248
	   15 B(1,4,3)        =    108.907907    -0.000149    -0.505077   108.402830
	   16 B(1,4,7)        =    110.538328     0.000219     0.969222   111.507550
	   17 B(2,4,3)        =    108.839331    -0.000169    -0.969180   107.870151
	   18 B(2,4,7)        =    109.907488     0.000144     0.593471   110.500959
	   19 B(3,4,7)        =    109.800413     0.000116     0.543683   110.344096
	   20 B(4,7,5)        =    109.292071    -0.000024     0.168827   109.460897
	   21 B(4,7,6)        =    109.437870    -0.000015     0.158629   109.596499
	   22 B(4,7,10)       =    110.943750     0.000274     1.098183   112.041933
	   23 B(5,7,6)        =    109.213953    -0.000084    -1.151527   108.062426
	   24 B(5,7,10)       =    108.939763    -0.000076    -0.068393   108.871370
	   25 B(6,7,10)       =    108.988016    -0.000080    -0.268274   108.719742
	   26 B(7,10,8)       =    108.961229    -0.000082    -0.202506   108.758723
	   27 B(7,10,9)       =    109.076187    -0.000065    -0.101847   108.974339
	   28 B(7,10,14)      =    110.898018     0.000268     1.076332   111.974350
	   29 B(8,10,9)       =    109.239218    -0.000078    -1.106210   108.133007
	   30 B(8,10,14)      =    109.353817    -0.000020     0.147890   109.501707
	   31 B(9,10,14)      =    109.288665    -0.000028     0.128592   109.417257
	   32 B(10,14,11)     =    110.492927     0.000203     0.836976   111.329903
	   33 B(10,14,12)     =    109.757141     0.000117     0.565019   110.322161
	   34 B(10,14,13)     =    109.813826     0.000122     0.588184   110.402011
	   35 B(11,14,12)     =    108.897689    -0.000152    -0.649307   108.248382
	   36 B(11,14,13)     =    108.869775    -0.000153    -0.646347   108.223429
	   37 B(12,14,13)     =    108.978771    -0.000146    -0.759962   108.218809
	   38 D(1,4,7,5)      =    -79.603591     0.000024     1.187287   -78.416303
	   39 D(1,4,7,6)      =     39.952750    -0.000005    -0.019059    39.933691
	   40 D(1,4,7,10)     =    160.251765     0.000009     0.457574   160.709339
	   41 D(2,4,7,5)      =     40.523289     0.000028     1.316927    41.840217
	   42 D(2,4,7,6)      =    160.079630    -0.000001     0.110581   160.190211
	   43 D(2,4,7,10)     =    -79.621355     0.000013     0.587214   -79.034141
	   44 D(3,4,7,5)      =    160.219481     0.000017     0.832788   161.052269
	   45 D(3,4,7,6)      =    -80.224178    -0.000012    -0.373558   -80.597736
[...]
  CGR           3          0          1   3.548E-03
  CGR           4          0          1   8.168E-04
  CGR           5          0          1   1.197E-04
  CGR           6          0          1   2.218E-05
  CGR           7          0          1   3.916E-06
  CGR           8          1          0   9.124E-07

    CGRSolver converged.

  ==> DFCorrGrad: Density-Fitted Correlated Gradients <==

    OpenMP threads:              1
    Integrals threads:           1
    Memory (MB):              3576
    Schwarz Cutoff:          0E+00
    Fitting Condition:       1E-12

   => Auxiliary Basis Set <=

  Basis Set: (AUG-CC-PVTZ AUX)
    Blend: AUG-CC-PVTZ-JKFIT
    Number of shells: 260
    Number of basis function: 876
    Number of Cartesian functions: 1074
    Spherical Harmonics?: true
    Max angular momentum: 4

	-----------------------------------------------------------
	 ==================> DF-MP2 Energies <==================== 
	-----------------------------------------------------------
	 Reference Energy          =    -157.3552507923034796 [Eh]
	 Singles Energy            =      -0.0000000000000000 [Eh]
	 Same-Spin Energy          =      -0.1654703078552737 [Eh]
	 Opposite-Spin Energy      =      -0.6393387846886621 [Eh]
	 Correlation Energy        =      -0.8048090925439357 [Eh]
	 Total Energy              =    -158.1600598848474135 [Eh]
	-----------------------------------------------------------
	 ================> DF-SCS-MP2 Energies <================== 
	-----------------------------------------------------------
	 SCS Same-Spin Scale       =       0.3333333333333333 [-]
	 SCS Opposite-Spin Scale   =       1.2000000000000000 [-]
	 SCS Same-Spin Energy      =      -0.0551567692850912 [Eh]
	 SCS Opposite-Spin Energy  =      -0.7672065416263946 [Eh]
	 SCS Correlation Energy    =      -0.8223633109114858 [Eh]
	 SCS Total Energy          =    -158.1776141032149781 [Eh]
	-----------------------------------------------------------


  -Total Gradient:
     Atom            X                  Y                   Z
    ------   -----------------  -----------------  -----------------
       1       -0.000013040382     0.000003978369     0.000010903148
       2        0.000011091178     0.000005166586     0.000027264943
       3        0.000616032823    -0.001401079423    -0.002251465575
       4       -0.000962197797     0.001631194467     0.003528006763
       5        0.000016738464     0.000001924086    -0.000005247491
       6       -0.000007264262     0.000012901791    -0.000025008842
       7        0.000852215851     0.000074679149    -0.003163715477
       8        0.000016864316     0.000000020800    -0.000016724787
       9       -0.000012702375    -0.000003526351    -0.000002331548
      10       -0.000507000836    -0.000313845906     0.001872492224
      11        0.000007630420     0.000003575649     0.000004880186
      12        0.000009834316     0.000001725346    -0.000004605167
      13       -0.000010611213     0.000000336746    -0.000003014211
      14       -0.000017590503    -0.000017051308     0.000028565834


*** tstop() called on gpu-2-9.local at Wed Jun 14 15:09:40 2017
Module time:
	user time   =     444.93 seconds =       7.42 minutes
	system time =       4.32 seconds =       0.07 minutes
	total time  =        449 seconds =       7.48 minutes
Total time:
	user time   =    2751.58 seconds =      45.86 minutes
	system time =      25.93 seconds =       0.43 minutes
	total time  =       2898 seconds =      48.30 minutes

			-----------------------------------------
			 OPTKING 2.0: for geometry optimizations 
			  - R.A. King,  Bethel University        
			-----------------------------------------

	Previous internal coordinate definitions found.
	---Fragment 1 Geometry and Gradient---
	 H          -4.3289555139        3.0099671076       -0.0583347414
	 H          -3.5333040645        1.2136041752       -2.7374846802
	 H          -4.3249158146       -0.3293471880        0.0701521764
	 C          -3.3538854022        1.3169804120       -0.6908833816
	 H           0.4870374921        2.5929262765       -1.1185055495
	 H          -0.3989114654        2.0133431578        2.0076439782
	 C          -0.5868577924        1.3054011545        0.0800188991
	 H          -0.4555631561       -2.5533754859        1.2417839815
	 H           0.3287941151       -2.0825814884       -1.9329861864
	 C           0.5787946977       -1.3104562478       -0.0366255856
	 H           4.1608757618       -3.2015138470        0.5849880404
	 H           3.6397144240       -0.5689989850        2.5497693765
	 H           4.4308348287       -0.1234842446       -0.6456644374
	 C           3.3614776237       -1.3094510644        0.6507351002
	            -0.0000130404        0.0000039784        0.0000109031
	             0.0000110912        0.0000051666        0.0000272649
	             0.0006160328       -0.0014010794       -0.0022514656
	            -0.0009621978        0.0016311945        0.0035280068
	             0.0000167385        0.0000019241       -0.0000052475
	            -0.0000072643        0.0000129018       -0.0000250088
	             0.0008522159        0.0000746791       -0.0031637155
	             0.0000168643        0.0000000208       -0.0000167248
	            -0.0000127024       -0.0000035264       -0.0000023315
	            -0.0005070008       -0.0003138459        0.0018724922
	             0.0000076304        0.0000035756        0.0000048802
	             0.0000098343        0.0000017253       -0.0000046052
	            -0.0000106112        0.0000003367       -0.0000030142
	            -0.0000175905       -0.0000170513        0.0000285658

	---Fragment 1 Intrafragment Coordinates---
	 - Coordinate -           - BOHR/RAD -       - ANG/DEG -
	 R(1,4)           =         2.053554	       1.086694
	 R(2,4)           =         2.057050	       1.088544
	 R(3,4)           =         2.057297	       1.088675
	 R(4,7)           =         2.872432	       1.520026
	 R(5,7)           =         2.060930	       1.090597
	 R(6,7)           =         2.062097	       1.091215
	 R(7,10)          =         2.866193	       1.516724
	 R(8,10)          =         2.061329	       1.090808
	 R(9,10)          =         2.062731	       1.091550
	 R(10,14)         =         2.866320	       1.516791
	 R(11,14)         =         2.055058	       1.087490
	 R(12,14)         =         2.057186	       1.088616
	 R(13,14)         =         2.056865	       1.088446
	 B(1,4,2)         =         1.882287	     107.847107
	 B(1,4,3)         =         1.898293	     108.764155
	 B(1,4,7)         =         1.958488	     112.213105
	 B(2,4,3)         =         1.861533	     106.657959
	 B(2,4,7)         =         1.929258	     110.538370
	 B(3,4,7)         =         1.930683	     110.620010
	 B(4,7,5)         =         1.921287	     110.081649
	 B(4,7,6)         =         1.914836	     109.712040
	 B(4,7,10)        =         1.965488	     112.614163
	 B(5,7,6)         =         1.856312	     106.358864
	 B(5,7,10)        =         1.911959	     109.547209
	 B(6,7,10)        =         1.890518	     108.318698
	 B(7,10,8)        =         1.897574	     108.722973
	 B(7,10,9)        =         1.906837	     109.253728
	 B(7,10,14)       =         1.965727	     112.627843
	 B(8,10,9)        =         1.858389	     106.477827
	 B(8,10,14)       =         1.916264	     109.793842
	 B(9,10,14)       =         1.915861	     109.770770
	 B(10,14,11)      =         1.949424	     111.693740
	 B(10,14,12)      =         1.931359	     110.658735
	 B(10,14,13)      =         1.932410	     110.718930
	 B(11,14,12)      =         1.884211	     107.957315
	 B(11,14,13)      =         1.884368	     107.966362
	 B(12,14,13)      =         1.879657	     107.696436
	 D(1,4,7,5)       =        -1.317019	     -75.459617
	 D(1,4,7,6)       =         0.720024	      41.254337
	 D(1,4,7,10)      =         2.827074	     161.979430
	 D(2,4,7,5)       =         0.784908	      44.971922
	 D(2,4,7,6)       =         2.821951	     161.685875
	 D(2,4,7,10)      =        -1.354184	     -77.589031
	 D(3,4,7,5)       =         2.842774	     162.878969
	 D(3,4,7,6)       =        -1.403368	     -80.407077
	 D(3,4,7,10)      =         0.703682	      40.318017
	 D(4,7,10,8)      =        -1.046142	     -59.939538
	 D(4,7,10,9)      =         0.975382	      55.885250
	 D(4,7,10,14)     =         3.109234	     178.145995
	 D(5,7,10,8)      =         3.092718	     177.199687
	 D(5,7,10,9)      =        -1.168943	     -66.975525
	 D(5,7,10,14)     =         0.964909	      55.285220
	 D(6,7,10,8)      =         1.074789	      61.580879
	 D(6,7,10,9)      =         3.096313	     177.405666
	 D(6,7,10,14)     =        -1.053020	     -60.333589
	 D(7,10,14,11)    =         3.126800	     179.152435
	 D(7,10,14,12)    =         1.027075	      58.847065
	 D(7,10,14,13)    =        -1.055744	     -60.489678
	 D(8,10,14,11)    =         1.009601	      57.845887
	 D(8,10,14,12)    =        -1.090124	     -62.459483
	 D(8,10,14,13)    =         3.110243	     178.203773
	 D(9,10,14,11)    =        -1.027628	     -58.878729
	 D(9,10,14,12)    =        -3.127352	    -179.184099
	 D(9,10,14,13)    =         1.073014	      61.479158

	Current energy   :      -158.1600598848

	Energy change for the previous step:
		Projected    :        -0.0000013523
		Actual       :        -0.0000012325

	Performing BFGS update.
	Previous computed or guess Hessian on step 1.
	Steps to be used in Hessian update: 5 4
	Adding user-defined constraint: Fragment 1; Coordinate 46:
		Value =     0.703682; Fixed value    =     0.698130
		Force =    -0.003470; Force constant =     0.625000
	Removing off-diagonal coupling between coordinate 46 and others.
	Taking RFO optimization step.
	Going to follow RFO solution 1.
	Rejecting RFO root 1 because normalization gives large value.
	Using RFO vector 2.
	Norm of target step-size    0.00191
	Projected energy change by RFO approximation:        -0.0000002131

	Back-transformation to cartesian coordinates...
	Successfully converged to displaced geometry.

	--- Internal Coordinate Step in ANG or DEG, aJ/ANG or AJ/DEG ---
	 ---------------------------------------------------------------------------
	   Coordinate                Previous        Force       Change         New 
	   ----------                --------       ------       ------       ------
	    1 R(1,4)          =      1.086694    -0.000106    -0.000016     1.086678
	    2 R(2,4)          =      1.088544     0.000234     0.000031     1.088574
	    3 R(3,4)          =      1.088675     0.000020    -0.000005     1.088670
	    4 R(4,7)          =      1.520026     0.000136     0.000090     1.520115
	    5 R(5,7)          =      1.090597    -0.000107    -0.000041     1.090556
	    6 R(6,7)          =      1.091215     0.000162     0.000008     1.091223
	    7 R(7,10)         =      1.516724    -0.000121     0.000012     1.516736
	    8 R(8,10)         =      1.090808     0.000155     0.000016     1.090824
	    9 R(9,10)         =      1.091550    -0.000041    -0.000025     1.091525
	   10 R(10,14)        =      1.516791     0.000035     0.000056     1.516847
	   11 R(11,14)        =      1.087490     0.000004     0.000003     1.087493
	   12 R(12,14)        =      1.088616     0.000019    -0.000010     1.088606
	   13 R(13,14)        =      1.088446     0.000028    -0.000011     1.088436
	   14 B(1,4,2)        =    107.847107    -0.000000    -0.000081   107.847026
	   15 B(1,4,3)        =    108.764155     0.000003     0.005674   108.769829
	   16 B(1,4,7)        =    112.213105     0.000000    -0.002300   112.210804
	   17 B(2,4,3)        =    106.657959    -0.000002     0.002438   106.660397
	   18 B(2,4,7)        =    110.538370    -0.000000     0.000902   110.539272
	   19 B(3,4,7)        =    110.620010    -0.000001    -0.006171   110.613839
	   20 B(4,7,5)        =    110.081649    -0.000001    -0.003332   110.078317
	   21 B(4,7,6)        =    109.712040     0.000001    -0.000893   109.711147
	   22 B(4,7,10)       =    112.614163    -0.000001    -0.008645   112.605519
	   23 B(5,7,6)        =    106.358864     0.000000     0.017583   106.376446
	   24 B(5,7,10)       =    109.547209     0.000003     0.013101   109.560310
	   25 B(6,7,10)       =    108.318698    -0.000003    -0.016483   108.302215
	   26 B(7,10,8)       =    108.722973    -0.000001    -0.004560   108.718414
	   27 B(7,10,9)       =    109.253728     0.000000    -0.002377   109.251352
	   28 B(7,10,14)      =    112.627843     0.000000    -0.000891   112.626952
	   29 B(8,10,9)       =    106.477827     0.000000     0.016701   106.494528
	   30 B(8,10,14)      =    109.793842     0.000001     0.003298   109.797140
	   31 B(9,10,14)      =    109.770770    -0.000001    -0.011105   109.759665
	   32 B(10,14,11)     =    111.693740    -0.000001    -0.006236   111.687504
	   33 B(10,14,12)     =    110.658735    -0.000001    -0.008306   110.650429
	   34 B(10,14,13)     =    110.718930     0.000002     0.005192   110.724122
	   35 B(11,14,12)     =    107.957315     0.000001     0.002157   107.959471
	   36 B(11,14,13)     =    107.966362    -0.000000     0.002045   107.968407
	   37 B(12,14,13)     =    107.696436     0.000000     0.005734   107.702170
	   38 D(1,4,7,5)      =    -75.459617     0.000000     0.007276   -75.452341
	   39 D(1,4,7,6)      =     41.254337     0.000000     0.026161    41.280498
	   40 D(1,4,7,10)     =    161.979430    -0.000001    -0.001146   161.978284
	   41 D(2,4,7,5)      =     44.971922     0.000000     0.006247    44.978169
	   42 D(2,4,7,6)      =    161.685875     0.000000     0.025132   161.711008
	   43 D(2,4,7,10)     =    -77.589031    -0.000001    -0.002175   -77.591206
	   44 D(3,4,7,5)      =    162.878969    -0.000001     0.005980   162.884950
	   45 D(3,4,7,6)      =    -80.407077    -0.000001     0.024865   -80.382212
	   46 D(3,4,7,10)     =     40.318017    -0.000001    -0.002442    40.315575
	   47 D(4,7,10,8)     =    -59.939538     0.000000     0.007466   -59.932071
	   48 D(4,7,10,9)     =     55.885250     0.000000     0.023552    55.908802
	   49 D(4,7,10,14)    =    178.145995    -0.000000     0.007073   178.153068
	   50 D(5,7,10,8)     =    177.199687    -0.000000     0.008228   177.207915
	   51 D(5,7,10,9)     =    -66.975525     0.000000     0.024313   -66.951212
	   52 D(5,7,10,14)    =     55.285220    -0.000000     0.007835    55.293055
	   53 D(6,7,10,8)     =     61.580879    -0.000000    -0.010618    61.570261
	   54 D(6,7,10,9)     =    177.405666    -0.000000     0.005467   177.411134
	   55 D(6,7,10,14)    =    -60.333589    -0.000000    -0.011011   -60.344599
	   56 D(7,10,14,11)   =    179.152435    -0.000000     0.025497   179.177932
	   57 D(7,10,14,12)   =     58.847065     0.000000     0.032593    58.879658
	   58 D(7,10,14,13)   =    -60.489678    -0.000000     0.027448   -60.462230
	   59 D(8,10,14,11)   =     57.845887     0.000000     0.029587    57.875473
	   60 D(8,10,14,12)   =    -62.459483     0.000000     0.036683   -62.422801
	   61 D(8,10,14,13)   =    178.203773     0.000000     0.031538   178.235311
	   62 D(9,10,14,11)   =    -58.878729    -0.000000     0.013897   -58.864832
	   63 D(9,10,14,12)   =   -179.184099     0.000000     0.020993  -179.163106
	   64 D(9,10,14,13)   =     61.479158    -0.000000     0.015849    61.495006
	 ---------------------------------------------------------------------------
	Successfully symmetrized geometry.
	 Forces used to impose fixed constraints are not included.
	  Forces zeroed: 46 

  ==> Convergence Check <==

  Measures of convergence in internal coordinates in au.
  Criteria marked as inactive (o), active & met (*), and active & unmet ( ).
  ---------------------------------------------------------------------------------------------
   Step     Total Energy     Delta E     MAX Force     RMS Force      MAX Disp      RMS Disp   
  ---------------------------------------------------------------------------------------------
    Convergence Criteria    1.00e-06 *    3.00e-04 *             o    1.20e-03 *             o
  ---------------------------------------------------------------------------------------------
      6    -158.16005988   -1.23e-06      4.12e-05 *    1.54e-05 o    6.40e-04 *    2.39e-04 o  ~
  ---------------------------------------------------------------------------------------------


  **** Optimization is complete! (in 6 steps) ****

  ==> Optimization Summary <==

  Measures of convergence in internal coordinates in au.
  --------------------------------------------------------------------------------------------------------------- ~
   Step         Total Energy             Delta E       MAX Force       RMS Force        MAX Disp        RMS Disp  ~
  --------------------------------------------------------------------------------------------------------------- ~
      1    -158.155711759904   -158.155711759904      0.01328249      0.00560535      0.02517966      0.01250543  ~
      2    -158.158748890777     -0.003037130874      0.00482536      0.00227431      0.03004230      0.01252087  ~
      3    -158.159775379198     -0.001026488421      0.00167547      0.00064858      0.04078755      0.01251499  ~
      4    -158.160027442132     -0.000252062934      0.00071380      0.00018951      0.03595771      0.01139578  ~
      5    -158.160058652319     -0.000031210187      0.00019081      0.00005047      0.00529626      0.00200244  ~
      6    -158.160059884847     -0.000001232529      0.00007506      0.00001807      0.00064024      0.00023903  ~
  --------------------------------------------------------------------------------------------------------------- ~

	Writing optimization data to binary file.
	Final energy is   -158.1600598848474
	Final (previous) structure:
	Cartesian Geometry (in Angstrom)
	    H    -2.2907845950   1.5928059919  -0.0308694156
	    H    -1.8697439819   0.6422116698  -1.4486145016
	    H    -2.2886468781  -0.1742830256   0.0371229329
	    C    -1.7747997151   0.6969160182  -0.3655997393
	    H     0.2577291406   1.3721174891  -0.5918876445
	    H    -0.2110948557   1.0654153122   1.0623994362
	    C    -0.3105517684   0.6907885390   0.0423441777
	    H    -0.2410736393  -1.3511881121   0.6571237810
	    H     0.1739903520  -1.1020546587  -1.0228922343
	    C     0.3062849624  -0.6934635792  -0.0193814251
	    H     2.2018406209  -1.6941681608   0.3095623383
	    H     1.9260539190  -0.3011012946   1.3492798412
	    H     2.3446968063  -0.0653450479  -0.3416709047
	    C     1.7788173456  -0.6929316590   0.3443541839
	Saving final (previous) structure.
			--------------------------
			 OPTKING Finished Execution 
			--------------------------

    Final optimized geometry and variables:
    Molecular point group: c1
    Full point group: C1

    Geometry (in Angstrom), charge = 0, multiplicity = 1:

    H           -2.290784594979     1.592805991937    -0.030869415642
    H           -1.869743981927     0.642211669762    -1.448614501640
    H           -2.288646878140    -0.174283025588     0.037122932866
    C           -1.774799715064     0.696916018164    -0.365599739346
    H            0.257729140568     1.372117489101    -0.591887644459
    H           -0.211094855720     1.065415312174     1.062399436233
    C           -0.310551768407     0.690788539030     0.042344177663
    H           -0.241073639306    -1.351188112088     0.657123781026
    H            0.173990352013    -1.102054658686    -1.022892234343
    C            0.306284962449    -0.693463579202    -0.019381425141
    H            2.201840620918    -1.694168160823     0.309562338252
    H            1.926053918958    -0.301101294595     1.349279841221
    H            2.344696806349    -0.065345047873    -0.341670904692
    C            1.778817345627    -0.692931659021     0.344354183881

	Cleaning optimization helper files.

*** Psi4 exiting successfully. Buy a developer a beer!
