
    -----------------------------------------------------------------------
          Psi4: An Open-Source Ab Initio Electronic Structure Package
                               Psi4 1.1 release

                         Git: Rev {HEAD} add49b9 


    R. M. Parrish, L. A. Burns, D. G. A. Smith, A. C. Simmonett,
    A. E. DePrince III, E. G. Hohenstein, U. Bozkaya, A. Yu. Sokolov,
    R. Di Remigio, R. M. Richard, J. F. Gonthier, A. M. James,
    H. R. McAlexander, A. Kumar, M. Saitow, X. Wang, B. P. Pritchard,
    P. Verma, H. F. Schaefer III, K. Patkowski, R. A. King, E. F. Valeev,
    F. A. Evangelista, J. M. Turney, T. D. Crawford, and C. D. Sherrill,
    J. Chem. Theory Comput. in press (2017).
    (doi: 10.1021/acs.jctc.7b00174)

    -----------------------------------------------------------------------


    Psi4 started on: Wednesday, 14 June 2017 02:24PM

    Process ID:  24651
    PSIDATADIR: /cbio/jclab/home/chayas/anaconda/envs/py35/share/psi4
    Memory:     500.0 MiB
    Threads:    1
    
  ==> Input File <==

--------------------------------------------------------------------------

memory 1000 mb

molecule butane {
  symmetry C1
  0 1 
  H      5.521   2.318   -8.057
  H      4.137   3.278   -7.591
  H      4.575   1.866   -6.660
  C      4.535   2.286   -7.643
  H      2.645   1.383   -8.122
  H      3.590   1.836   -9.520
  C      3.631   1.416   -8.537
  H      3.665   -0.647   -7.940
  H      4.104   -0.384   -9.610
  C      4.203   -0.012   -8.612
  H      6.088   -0.983   -8.270
  H      5.791   0.381   -7.220
  H      6.230   0.644   -8.890
  C      5.691   0.009   -8.218
  units Angstrom
}

dih_string = "14 10 7 4 340"
set optking fixed_dihedral = $dih_string

optimize('MP2/aug-cc-pvtz')
--------------------------------------------------------------------------

  Memory set to 953.674 MiB by Python driver.
gradient() will perform analytic gradient computation.

*** tstart() called on gpu-2-6.local
*** at Wed Jun 14 14:24:37 2017

    SCF Algorithm Type (re)set to DF.

*** tstart() called on gpu-2-6.local
*** at Wed Jun 14 14:24:37 2017

   => Loading Basis Set <=

    Name: AUG-CC-PVTZ
    Role: ORBITAL
    Keyword: BASIS
    atoms 1-3, 5-6, 8-9, 11-13 entry H          line    34 file /cbio/jclab/home/chayas/anaconda/envs/py35/share/psi4/basis/aug-cc-pvtz.gbs 
    atoms 4, 7, 10, 14         entry C          line   221 file /cbio/jclab/home/chayas/anaconda/envs/py35/share/psi4/basis/aug-cc-pvtz.gbs 


         ---------------------------------------------------------
                                   SCF
            by Justin Turney, Rob Parrish, and Andy Simmonett
                              RHF Reference
                        1 Threads,    953 MiB Core
         ---------------------------------------------------------

  ==> Geometry <==

    Molecular point group: c1
    Full point group: C1

    Geometry (in Angstrom), charge = 0, multiplicity = 1:

       Center              X                  Y                   Z               Mass       
    ------------   -----------------  -----------------  -----------------  -----------------
           H          0.985245952974     1.385536643894     0.184307391027     1.007825032070
           H         -0.398754047026     2.345536643894     0.650307391027     1.007825032070
           H          0.039245952974     0.933536643894     1.581307391027     1.007825032070
           C         -0.000754047026     1.353536643894     0.598307391027    12.000000000000
           H         -1.890754047026     0.450536643894     0.119307391027     1.007825032070
           H         -0.945754047026     0.903536643894    -1.278692608973     1.007825032070
           C         -0.904754047026     0.483536643894    -0.295692608973    12.000000000000
           H         -0.870754047026    -1.579463356106     0.301307391027     1.007825032070
           H         -0.431754047026    -1.316463356106    -1.368692608973     1.007825032070
           C         -0.332754047026    -0.944463356106    -0.370692608973    12.000000000000
           H          1.552245952974    -1.915463356106    -0.028692608973     1.007825032070
           H          1.255245952974    -0.551463356106     1.021307391027     1.007825032070
           H          1.694245952974    -0.288463356106    -0.648692608973     1.007825032070
           C          1.155245952974    -0.923463356106     0.023307391027    12.000000000000

  Running in c1 symmetry.

  Rotational constants: A =      0.38130  B =      0.20636  C =      0.14976 [cm^-1]
  Rotational constants: A =  11431.23115  B =   6186.54688  C =   4489.63080 [MHz]
  Nuclear repulsion =  136.321395130578821

  Charge       = 0
  Multiplicity = 1
  Electrons    = 34
  Nalpha       = 17
  Nbeta        = 17

  ==> Algorithm <==

  SCF Algorithm Type is DF.
  DIIS enabled.
  MOM disabled.
  Fractional occupation disabled.
  Guess Type is SAD.
  Energy threshold   = 1.00e-10
  Density threshold  = 1.00e-10
  Integral threshold = 0.00e+00

  ==> Primary Basis <==

  Basis Set: AUG-CC-PVTZ
    Blend: AUG-CC-PVTZ
    Number of shells: 146
    Number of basis function: 414
    Number of Cartesian functions: 470
    Spherical Harmonics?: true
    Max angular momentum: 3

   => Loading Basis Set <=

    Name: (AUG-CC-PVTZ AUX)
    Role: JKFIT
    Keyword: DF_BASIS_SCF
    atoms 1-3, 5-6, 8-9, 11-13 entry H          line    69 file /cbio/jclab/home/chayas/anaconda/envs/py35/share/psi4/basis/aug-cc-pvtz-jkfit.gbs 
    atoms 4, 7, 10, 14         entry C          line   161 file /cbio/jclab/home/chayas/anaconda/envs/py35/share/psi4/basis/aug-cc-pvtz-jkfit.gbs 

  ==> Pre-Iterations <==

   -------------------------------------------------------
    Irrep   Nso     Nmo     Nalpha   Nbeta   Ndocc  Nsocc
   -------------------------------------------------------
     A        414     414       0       0       0       0
   -------------------------------------------------------
    Total     414     414      17      17      17       0
   -------------------------------------------------------

  ==> Integral Setup <==

  ==> DFJK: Density-Fitted J/K Matrices <==

    J tasked:                  Yes
    K tasked:                  Yes
    wK tasked:                  No
    OpenMP threads:              1
    Integrals threads:           1
    Memory (MB):               715
    Algorithm:                Core
    Integral Cache:           NONE
    Schwarz Cutoff:          1E-12
    Fitting Condition:       1E-12

   => Auxiliary Basis Set <=

  Basis Set: (AUG-CC-PVTZ AUX)
    Blend: AUG-CC-PVTZ-JKFIT
    Number of shells: 260
    Number of basis function: 876
    Number of Cartesian functions: 1074
    Spherical Harmonics?: true
    Max angular momentum: 4

  Minimum eigenvalue in the overlap matrix is 3.8170757217E-06.
  Using Symmetric Orthogonalization.

  SCF Guess: Superposition of Atomic Densities via on-the-fly atomic UHF.

  ==> Iterations <==

                           Total Energy        Delta E     RMS |[F,P]|

   @DF-RHF iter   0:  -159.12577560374788   -1.59126e+02   9.66484e-03 
   @DF-RHF iter   1:  -157.23571712808865    1.89006e+00   8.44747e-04 
   @DF-RHF iter   2:  -157.32507573110604   -8.93586e-02   2.52164e-04 DIIS
   @DF-RHF iter   3:  -157.33418264964808   -9.10692e-03   1.03892e-04 DIIS
   @DF-RHF iter   4:  -157.33552512720479   -1.34248e-03   2.07304e-05 DIIS
   @DF-RHF iter   5:  -157.33560374019922   -7.86130e-05   4.34746e-06 DIIS
   @DF-RHF iter   6:  -157.33560790705630   -4.16686e-06   1.02098e-06 DIIS
   @DF-RHF iter   7:  -157.33560808959911   -1.82543e-07   2.83292e-07 DIIS
   @DF-RHF iter   8:  -157.33560810423995   -1.46408e-08   7.36918e-08 DIIS
   @DF-RHF iter   9:  -157.33560810531608   -1.07613e-09   1.87092e-08 DIIS
   @DF-RHF iter  10:  -157.33560810539575   -7.96661e-11   4.20185e-09 DIIS
   @DF-RHF iter  11:  -157.33560810539760   -1.84741e-12   1.22050e-09 DIIS
   @DF-RHF iter  12:  -157.33560810539905   -1.44951e-12   2.61787e-10 DIIS
   @DF-RHF iter  13:  -157.33560810540061   -1.56319e-12   5.71432e-11 DIIS

  ==> Post-Iterations <==

    Orbital Energies (a.u.)
    -----------------------

    Doubly Occupied:                                                      

       1A    -11.205735     2A    -11.205137     3A    -11.196601  
       4A    -11.196492     5A     -1.076911     6A     -0.966653  
       7A     -0.888342     8A     -0.771123     9A     -0.647625  
      10A     -0.627279    11A     -0.565975    12A     -0.540049  
      13A     -0.530770    14A     -0.510544    15A     -0.457961  
      16A     -0.455050    17A     -0.451582  

    Virtual:                                                              

      18A      0.031657    19A      0.038049    20A      0.040276  
      21A      0.040460    22A      0.058650    23A      0.058685  
      24A      0.060874    25A      0.062705    26A      0.067363  
      27A      0.087242    28A      0.112149    29A      0.121445  
      30A      0.125405    31A      0.127875    32A      0.129083  
      33A      0.134733    34A      0.138624    35A      0.141006  
      36A      0.145573    37A      0.154228    38A      0.163474  
      39A      0.166443    40A      0.178413    41A      0.187372  
      42A      0.200020    43A      0.213588    44A      0.230416  
      45A      0.251294    46A      0.257986    47A      0.281760  
      48A      0.287289    49A      0.298483    50A      0.303701  
      51A      0.314165    52A      0.314559    53A      0.316973  
      54A      0.323103    55A      0.326425    56A      0.328361  
      57A      0.339935    58A      0.351640    59A      0.352631  
      60A      0.357754    61A      0.363534    62A      0.364218  
      63A      0.378632    64A      0.383944    65A      0.390666  
      66A      0.398430    67A      0.410717    68A      0.419913  
      69A      0.421123    70A      0.425885    71A      0.431847  
      72A      0.438257    73A      0.449345    74A      0.454676  
      75A      0.459344    76A      0.461674    77A      0.471612  
      78A      0.478706    79A      0.482350    80A      0.486439  
      81A      0.492222    82A      0.500025    83A      0.501198  
      84A      0.509391    85A      0.513048    86A      0.537292  
      87A      0.545972    88A      0.556384    89A      0.557063  
      90A      0.563773    91A      0.573767    92A      0.577551  
      93A      0.581030    94A      0.598994    95A      0.600209  
      96A      0.606711    97A      0.609390    98A      0.618272  
      99A      0.630954   100A      0.640618   101A      0.641216  
     102A      0.669702   103A      0.677493   104A      0.687654  
     105A      0.696695   106A      0.709594   107A      0.733425  
     108A      0.796675   109A      0.799818   110A      0.809992  
     111A      0.819947   112A      0.826459   113A      0.829062  
     114A      0.841819   115A      0.846114   116A      0.863513  
     117A      0.870676   118A      0.872220   119A      0.874004  
     120A      0.886687   121A      0.902677   122A      0.905671  
     123A      0.925352   124A      0.925487   125A      0.928036  
     126A      0.947471   127A      0.958068   128A      0.959720  
     129A      0.964259   130A      0.977122   131A      0.984552  
     132A      0.990340   133A      1.003840   134A      1.004572  
     135A      1.013400   136A      1.042059   137A      1.043632  
     138A      1.059135   139A      1.066609   140A      1.079099  
     141A      1.089734   142A      1.100637   143A      1.103963  
     144A      1.106838   145A      1.122874   146A      1.125746  
     147A      1.138704   148A      1.158117   149A      1.158561  
     150A      1.160314   151A      1.180324   152A      1.186056  
     153A      1.209435   154A      1.209637   155A      1.216750  
     156A      1.234861   157A      1.235126   158A      1.243142  
     159A      1.260144   160A      1.274786   161A      1.281929  
     162A      1.282310   163A      1.313516   164A      1.319396  
     165A      1.333912   166A      1.342381   167A      1.371399  
     168A      1.396063   169A      1.398346   170A      1.413082  
     171A      1.420418   172A      1.427425   173A      1.428960  
     174A      1.448296   175A      1.470951   176A      1.478017  
     177A      1.483477   178A      1.510550   179A      1.513646  
     180A      1.531711   181A      1.547680   182A      1.554851  
     183A      1.557846   184A      1.563450   185A      1.595573  
     186A      1.603851   187A      1.623254   188A      1.634072  
     189A      1.644002   190A      1.661969   191A      1.664684  
     192A      1.679248   193A      1.683971   194A      1.695226  
     195A      1.703076   196A      1.710251   197A      1.719230  
     198A      1.726230   199A      1.740386   200A      1.749682  
     201A      1.773856   202A      1.784160   203A      1.806247  
     204A      1.812167   205A      1.821229   206A      1.829423  
     207A      1.830081   208A      1.847385   209A      1.852137  
     210A      1.886250   211A      1.896428   212A      1.907944  
     213A      1.910836   214A      1.939324   215A      1.939779  
     216A      1.974363   217A      1.986905   218A      1.997156  
     219A      2.008097   220A      2.027602   221A      2.028577  
     222A      2.041965   223A      2.053439   224A      2.071293  
     225A      2.074015   226A      2.092999   227A      2.119164  
     228A      2.129620   229A      2.148919   230A      2.153971  
     231A      2.175571   232A      2.178779   233A      2.189140  
     234A      2.250633   235A      2.263192   236A      2.270584  
     237A      2.285815   238A      2.296194   239A      2.319025  
     240A      2.329408   241A      2.363785   242A      2.386466  
     243A      2.390983   244A      2.423813   245A      2.429921  
     246A      2.436424   247A      2.466214   248A      2.470697  
     249A      2.478799   250A      2.522511   251A      2.522643  
     252A      2.564964   253A      2.581796   254A      2.586414  
     255A      2.616577   256A      2.698199   257A      2.806623  
     258A      2.887922   259A      3.005507   260A      3.063911  
     261A      3.239067   262A      3.296147   263A      3.321255  
     264A      3.371374   265A      3.418816   266A      3.438095  
     267A      3.462510   268A      3.504641   269A      3.519201  
     270A      3.543966   271A      3.552846   272A      3.559852  
     273A      3.590662   274A      3.600008   275A      3.625584  
     276A      3.631897   277A      3.658672   278A      3.669346  
     279A      3.685483   280A      3.713785   281A      3.726338  
     282A      3.757840   283A      3.770253   284A      3.771583  
     285A      3.785963   286A      3.806571   287A      3.813831  
     288A      3.836525   289A      3.851170   290A      3.856883  
     291A      3.867959   292A      3.895763   293A      3.902506  
     294A      3.902655   295A      3.924704   296A      3.979294  
     297A      3.988281   298A      3.994226   299A      4.012285  
     300A      4.017489   301A      4.041982   302A      4.042701  
     303A      4.053572   304A      4.063171   305A      4.072821  
     306A      4.089384   307A      4.126414   308A      4.133560  
     309A      4.145223   310A      4.170648   311A      4.189839  
     312A      4.224095   313A      4.238851   314A      4.264652  
     315A      4.305195   316A      4.307561   317A      4.310389  
     318A      4.353835   319A      4.362603   320A      4.377621  
     321A      4.380546   322A      4.391736   323A      4.420015  
     324A      4.480818   325A      4.486480   326A      4.491029  
     327A      4.550339   328A      4.556786   329A      4.591654  
     330A      4.624713   331A      4.648823   332A      4.660383  
     333A      4.674024   334A      4.730157   335A      4.739489  
     336A      4.775107   337A      4.776884   338A      4.800283  
     339A      4.810579   340A      4.855989   341A      4.875581  
     342A      4.876310   343A      4.906151   344A      4.928831  
     345A      4.933663   346A      4.971969   347A      4.979846  
     348A      5.004528   349A      5.012396   350A      5.042030  
     351A      5.051819   352A      5.078530   353A      5.112358  
     354A      5.126346   355A      5.133306   356A      5.168033  
     357A      5.171294   358A      5.218922   359A      5.238610  
     360A      5.257659   361A      5.272786   362A      5.286870  
     363A      5.327247   364A      5.352607   365A      5.396214  
     366A      5.400970   367A      5.404022   368A      5.445417  
     369A      5.445888   370A      5.480699   371A      5.496140  
     372A      5.512169   373A      5.563138   374A      5.570943  
     375A      5.582796   376A      5.592244   377A      5.643657  
     378A      5.687815   379A      5.717205   380A      5.726939  
     381A      5.755234   382A      5.779717   383A      5.783062  
     384A      5.835739   385A      5.888542   386A      5.889049  
     387A      5.912444   388A      5.964000   389A      6.023583  
     390A      6.025527   391A      6.107957   392A      6.114510  
     393A      6.163343   394A      6.217924   395A      6.256883  
     396A      6.299405   397A      6.318334   398A      6.359952  
     399A      6.385079   400A      6.427421   401A      6.476144  
     402A      6.527214   403A      6.566689   404A      6.648698  
     405A      6.760885   406A      6.809532   407A      6.906619  
     408A      6.941763   409A      6.969901   410A      7.018396  
     411A     18.061374   412A     18.485650   413A     19.299495  
     414A     19.999591  

    Final Occupation by Irrep:
              A 
    DOCC [    17 ]

  Energy converged.

  @DF-RHF Final Energy:  -157.33560810540061

   => Energetics <=

    Nuclear Repulsion Energy =            136.3213951305788214
    One-Electron Energy =                -480.7263477097708346
    Two-Electron Energy =                 187.0693444737914035
    DFT Exchange-Correlation Energy =       0.0000000000000000
    Empirical Dispersion Energy =           0.0000000000000000
    PCM Polarization Energy =               0.0000000000000000
    EFP Energy =                            0.0000000000000000
    Total Energy =                       -157.3356081054006097



Properties will be evaluated at   0.000000,   0.000000,   0.000000 Bohr

Properties computed using the SCF density matrix

  Nuclear Dipole Moment: (a.u.)
     X:     0.9267      Y:     0.3444      Z:     0.4997

  Electronic Dipole Moment: (a.u.)
     X:    -0.9507      Y:    -0.3538      Z:    -0.5127

  Dipole Moment: (a.u.)
     X:    -0.0241      Y:    -0.0094      Z:    -0.0130     Total:     0.0289

  Dipole Moment: (Debye)
     X:    -0.0611      Y:    -0.0240      Z:    -0.0329     Total:     0.0735


*** tstop() called on gpu-2-6.local at Wed Jun 14 14:26:14 2017
Module time:
	user time   =      95.50 seconds =       1.59 minutes
	system time =       0.51 seconds =       0.01 minutes
	total time  =         97 seconds =       1.62 minutes
Total time:
	user time   =      95.51 seconds =       1.59 minutes
	system time =       0.51 seconds =       0.01 minutes
	total time  =         97 seconds =       1.62 minutes

  //>>>>>>>>>>>>>>>>>>>>>>>>>>>>>>>>>>>//
  //               DFMP2               //
  //<<<<<<<<<<<<<<<<<<<<<<<<<<<<<<<<<<<//

   => Loading Basis Set <=

    Name: (AUG-CC-PVTZ AUX)
    Role: RIFIT
    Keyword: DF_BASIS_MP2
    atoms 1-3, 5-6, 8-9, 11-13 entry H          line    29 file /cbio/jclab/home/chayas/anaconda/envs/py35/share/psi4/basis/aug-cc-pvtz-ri.gbs 
    atoms 4, 7, 10, 14         entry C          line   147 file /cbio/jclab/home/chayas/anaconda/envs/py35/share/psi4/basis/aug-cc-pvtz-ri.gbs 

	 --------------------------------------------------------
	                          DF-MP2                         
	      2nd-Order Density-Fitted Moller-Plesset Theory     
	              RMP2 Wavefunction,   1 Threads             
	                                                         
	        Rob Parrish, Justin Turney, Andy Simmonett,      
	           Ed Hohenstein, and C. David Sherrill          
	 --------------------------------------------------------

   => Auxiliary Basis Set <=

  Basis Set: (AUG-CC-PVTZ AUX)
    Blend: AUG-CC-PVTZ-RI
    Number of shells: 252
    Number of basis function: 884
    Number of Cartesian functions: 1094
    Spherical Harmonics?: true
    Max angular momentum: 4

	 --------------------------------------------------------
	                 NBF =   414, NAUX =   884
	 --------------------------------------------------------
	   CLASS    FOCC     OCC    AOCC    AVIR     VIR    FVIR
	   PAIRS       0      17      17     397     397       0
	 --------------------------------------------------------


         ------------------------------------------------------------
                                     CPHF                           
                                  Rob Parrish                       
         ------------------------------------------------------------

  ==> Geometry <==

    Molecular point group: c1
    Full point group: C1

    Geometry (in Angstrom), charge = 0, multiplicity = 1:

       Center              X                  Y                   Z               Mass       
    ------------   -----------------  -----------------  -----------------  -----------------
           H          0.985245952974     1.385536643894     0.184307391027     1.007825032070
           H         -0.398754047026     2.345536643894     0.650307391027     1.007825032070
           H          0.039245952974     0.933536643894     1.581307391027     1.007825032070
           C         -0.000754047026     1.353536643894     0.598307391027    12.000000000000
           H         -1.890754047026     0.450536643894     0.119307391027     1.007825032070
           H         -0.945754047026     0.903536643894    -1.278692608973     1.007825032070
           C         -0.904754047026     0.483536643894    -0.295692608973    12.000000000000
           H         -0.870754047026    -1.579463356106     0.301307391027     1.007825032070
           H         -0.431754047026    -1.316463356106    -1.368692608973     1.007825032070
           C         -0.332754047026    -0.944463356106    -0.370692608973    12.000000000000
           H          1.552245952974    -1.915463356106    -0.028692608973     1.007825032070
           H          1.255245952974    -0.551463356106     1.021307391027     1.007825032070
           H          1.694245952974    -0.288463356106    -0.648692608973     1.007825032070
           C          1.155245952974    -0.923463356106     0.023307391027    12.000000000000

  Nuclear repulsion =  136.321395130578821
  Reference energy  = -157.335608105400610

  ==> Basis Set <==

  Basis Set: AUG-CC-PVTZ
    Blend: AUG-CC-PVTZ
    Number of shells: 146
    Number of basis function: 414
    Number of Cartesian functions: 470
    Spherical Harmonics?: true
    Max angular momentum: 3

  ==> CGRSolver (by Rob Parrish) <==

   Number of roots    =         1
   Preconditioning    =    JACOBI
   Convergence cutoff =     1E-06
   Maximum iterations =       100

  ==> CPHFRHamiltonian (by Rob Parrish) <== 

  ==> DFJK: Density-Fitted J/K Matrices <==

    J tasked:                  Yes
    K tasked:                  Yes
    wK tasked:                  No
    OpenMP threads:              1
    Integrals threads:           1
    Memory (MB):               715
    Algorithm:                Core
    Integral Cache:           NONE
    Schwarz Cutoff:          1E-12
    Fitting Condition:       1E-12

   => Auxiliary Basis Set <=

  Basis Set: (AUG-CC-PVTZ AUX)
    Blend: AUG-CC-PVTZ-JKFIT
    Number of shells: 260
    Number of basis function: 876
    Number of Cartesian functions: 1074
    Spherical Harmonics?: true
    Max angular momentum: 4

  ==> CPHF Iterations <==

  => Iterations <=

             Iter  Converged  Remaining    Residual
  CGR           1          0          1   8.690E-02
  CGR           2          0          1   1.371E-02
  CGR           3          0          1   3.153E-03
  CGR           4          0          1   7.495E-04
  CGR           5          0          1   1.762E-04
  CGR           6          0          1   3.089E-05
  CGR           7          0          1   5.806E-06
  CGR           8          0          1   1.329E-06
  CGR           9          1          0   1.927E-07

    CGRSolver converged.

  ==> DFCorrGrad: Density-Fitted Correlated Gradients <==

    OpenMP threads:              1
    Integrals threads:           1
    Memory (MB):               715
    Schwarz Cutoff:          0E+00
    Fitting Condition:       1E-12

   => Auxiliary Basis Set <=

  Basis Set: (AUG-CC-PVTZ AUX)
    Blend: AUG-CC-PVTZ-JKFIT
    Number of shells: 260
    Number of basis function: 876
    Number of Cartesian functions: 1074
    Spherical Harmonics?: true
    Max angular momentum: 4

	-----------------------------------------------------------
	 ==================> DF-MP2 Energies <==================== 
	-----------------------------------------------------------
	 Reference Energy          =    -157.3356081054006097 [Eh]
	 Singles Energy            =      -0.0000000000000001 [Eh]
	 Same-Spin Energy          =      -0.1673466857532231 [Eh]
	 Opposite-Spin Energy      =      -0.6420197476076563 [Eh]
	 Correlation Energy        =      -0.8093664333608795 [Eh]
	 Total Energy              =    -158.1449745387614882 [Eh]
	-----------------------------------------------------------
	 ================> DF-SCS-MP2 Energies <================== 
	-----------------------------------------------------------
	 SCS Same-Spin Scale       =       0.3333333333333333 [-]
	 SCS Opposite-Spin Scale   =       1.2000000000000000 [-]
	 SCS Same-Spin Energy      =      -0.0557822285844077 [Eh]
	 SCS Opposite-Spin Energy  =      -0.7704236971291876 [Eh]
	 SCS Correlation Energy    =      -0.8262059257135954 [Eh]
	 SCS Total Energy          =    -158.1618140311142042 [Eh]
	-----------------------------------------------------------


  -Total Gradient:
     Atom            X                  Y                   Z
    ------   -----------------  -----------------  -----------------
       1       -0.007123497726    -0.006126634975     0.000148211626
       2        0.003074428331    -0.012012258226    -0.002602123079
       3       -0.000880792564     0.000366298050    -0.011716786291
       4        0.023019688149     0.002020762584     0.015091116060
       5        0.012284601485    -0.002396679215    -0.001222717491
       6        0.002163029751    -0.006630699833     0.010615116645
       7       -0.022630271903     0.004952178095    -0.014838463722
       8        0.005473567474     0.009489349186    -0.006544452550
       9        0.002848416288     0.008067727522     0.009740628804
      10       -0.017401668431    -0.020155750913    -0.007234780081
      11       -0.007104752091     0.010830298199     0.000529137240
      12       -0.005890718165     0.001207298721    -0.007253178240
      13       -0.008794823132    -0.003853974456     0.006217701425
      14        0.020962792532     0.014242085266     0.009070589654


*** tstop() called on gpu-2-6.local at Wed Jun 14 14:32:32 2017
Module time:
	user time   =     470.35 seconds =       7.84 minutes
	system time =       3.16 seconds =       0.05 minutes
	total time  =        475 seconds =       7.92 minutes
Total time:
	user time   =     470.36 seconds =       7.84 minutes
	system time =       3.16 seconds =       0.05 minutes
	total time  =        475 seconds =       7.92 minutes

			-----------------------------------------
			 OPTKING 2.0: for geometry optimizations 
			  - R.A. King,  Bethel University        
			-----------------------------------------

	Internal coordinates to be generated automatically.
	Detected frag 1 with atoms:  1 2 3 4 5 6 7 8 9 10 11 12 13 14
	---Fragment 1 Bond Connectivity---
	 1 : 4
	 2 : 4
	 3 : 4
	 4 : 1 2 3 7
	 5 : 7
	 6 : 7
	 7 : 4 5 6 10
	 8 : 10
	 9 : 10
	 10 : 7 8 9 14
	 11 : 14
	 12 : 14
	 13 : 14
	 14 : 10 11 12 13

	Assuming in current code that numbering for constraints corresponds to unified fragment.
	Fixed dihedral atom list: 
	    14    10     7     4
	---Fragment 1 Geometry and Gradient---
	 H           1.8618450247        2.6182848040        0.3482904933
	 H          -0.7535359433        4.4324218916        1.2289028712
	 H           0.0741641029        1.7641285920        2.9882379009
	 C          -0.0014249424        2.5578135678        1.1306371123
	 H          -3.5730073335        0.8513908698        0.2254582947
	 H          -1.7872161379        1.7074368080       -2.4163788391
	 C          -1.7097373665        0.9137518322       -0.5587780505
	 H          -1.6454866780       -2.9847531800        0.5693884509
	 H          -0.8158969056       -2.4877552070       -2.5864541911
	 C          -0.6288140185       -1.7847770856       -0.7005075104
	 H           2.9333197420       -3.6197011606       -0.0542211730
	 H           2.3720710805       -1.0421147154        1.9299912665
	 H           3.2016608529       -0.5451167424       -1.2258513754
	 C           2.1830984672       -1.7450928368        0.0440445859
	            -0.0071234977       -0.0061266350        0.0001482116
	             0.0030744283       -0.0120122582       -0.0026021231
	            -0.0008807926        0.0003662981       -0.0117167863
	             0.0230196881        0.0020207626        0.0150911161
	             0.0122846015       -0.0023966792       -0.0012227175
	             0.0021630298       -0.0066306998        0.0106151166
	            -0.0226302719        0.0049521781       -0.0148384637
	             0.0054735675        0.0094893492       -0.0065444525
	             0.0028484163        0.0080677275        0.0097406288
	            -0.0174016684       -0.0201557509       -0.0072347801
	            -0.0071047521        0.0108302982        0.0005291372
	            -0.0058907182        0.0012072987       -0.0072531782
	            -0.0087948231       -0.0038539745        0.0062177014
	             0.0209627925        0.0142420853        0.0090705897

	Previous optimization step data not found.  Starting new optimization.

	---Fragment 1 Intrafragment Coordinates---
	 - Coordinate -           - BOHR/RAD -       - ANG/DEG -
	 R(1,4)           =         2.021756	       1.069867
	 R(2,4)           =         2.022247	       1.070127
	 R(3,4)           =         2.021467	       1.069714
	 R(4,7)           =         2.911253	       1.540569
	 R(5,7)           =         2.022546	       1.070285
	 R(6,7)           =         2.021539	       1.069752
	 R(7,10)          =         2.910419	       1.540128
	 R(8,10)          =         2.021436	       1.069698
	 R(9,10)          =         2.021379	       1.069668
	 R(10,14)         =         2.909087	       1.539422
	 R(11,14)         =         2.021545	       1.069756
	 R(12,14)         =         2.021555	       1.069761
	 R(13,14)         =         2.022387	       1.070201
	 B(1,4,2)         =         1.911171	     109.502046
	 B(1,4,3)         =         1.910149	     109.443496
	 B(1,4,7)         =         1.910419	     109.458930
	 B(2,4,3)         =         1.910510	     109.464170
	 B(2,4,7)         =         1.910763	     109.478638
	 B(3,4,7)         =         1.910787	     109.480039
	 B(4,7,5)         =         1.910265	     109.450145
	 B(4,7,6)         =         1.911357	     109.512662
	 B(4,7,10)        =         1.911273	     109.507882
	 B(5,7,6)         =         1.910385	     109.457017
	 B(5,7,10)        =         1.909690	     109.417201
	 B(6,7,10)        =         1.910828	     109.482360
	 B(7,10,8)        =         1.910303	     109.452301
	 B(7,10,9)        =         1.910824	     109.482155
	 B(7,10,14)       =         1.911213	     109.504437
	 B(8,10,9)        =         1.910417	     109.458846
	 B(8,10,14)       =         1.910766	     109.478806
	 B(9,10,14)       =         1.910276	     109.450772
	 B(10,14,11)      =         1.910943	     109.488965
	 B(10,14,12)      =         1.911204	     109.503926
	 B(10,14,13)      =         1.911557	     109.524173
	 B(11,14,12)      =         1.910410	     109.458432
	 B(11,14,13)      =         1.910054	     109.438058
	 B(12,14,13)      =         1.909629	     109.413709
	 D(1,4,7,5)       =         3.140263	     179.923844
	 D(1,4,7,6)       =        -1.048613	     -60.081091
	 D(1,4,7,10)      =         1.046857	      59.980468
	 D(2,4,7,5)       =        -1.047920	     -60.041386
	 D(2,4,7,6)       =         1.046389	      59.953679
	 D(2,4,7,10)      =        -3.141327	    -179.984762
	 D(3,4,7,5)       =         1.046498	      59.959923
	 D(3,4,7,6)       =         3.140807	     179.954988
	 D(3,4,7,10)      =        -1.046909	     -59.983452
	 D(4,7,10,8)      =         1.745628	     100.017110
	 D(4,7,10,9)      =        -2.443512	    -140.002936
	 D(4,7,10,14)     =        -0.349082	     -20.000932
	 D(5,7,10,8)      =        -0.348131	     -19.946435
	 D(5,7,10,9)      =         1.745914	     100.033519
	 D(5,7,10,14)     =        -2.442841	    -139.964477
	 D(6,7,10,8)      =        -2.441765	    -139.902801
	 D(6,7,10,9)      =        -0.347719	     -19.922846
	 D(6,7,10,14)     =         1.746711	     100.079158
	 D(7,10,14,11)    =         3.141408	     179.989448
	 D(7,10,14,12)    =         1.046747	      59.974196
	 D(7,10,14,13)    =        -1.047335	     -60.007849
	 D(8,10,14,11)    =         1.046982	      59.987626
	 D(8,10,14,12)    =        -1.047680	     -60.027626
	 D(8,10,14,13)    =         3.141424	     179.990329
	 D(9,10,14,11)    =        -1.047012	     -59.989345
	 D(9,10,14,12)    =         3.141512	     179.995403
	 D(9,10,14,13)    =         1.047431	      60.013359

	Current energy   :      -158.1449745388

	Generating empirical Hessian (Schlegel '84) for each fragment.
	Adding user-defined constraint: Fragment 1; Coordinate 49:
		Value =    -0.349082; Fixed value    =    -0.349066
		Force =     0.000008; Force constant =     0.500000
	Removing off-diagonal coupling between coordinate 49 and others.
	Taking RFO optimization step.
	Going to follow RFO solution 1.
	Using RFO vector 1.

	Determining step-restricting scale parameter for RS-RFO.
	Maximum step size allowed    0.10000

	 Iter      |step|        alpha        rfo_root  
	------------------------------------------------
	    0     0.43038       1.00000           1
	    1     0.28948       4.67003           1
	    2     0.19631      14.69106           1
	    3     0.14120      34.12352           1
	    4     0.11267      58.44076           1
	    5     0.10188      73.77114           1
	    6     0.10005      76.88720           1
	    7     0.10000      76.97951           1
	------------------------------------------------
	Norm of target step-size    0.10000
	Projected energy change by RFO approximation:        -0.0092277026

	Back-transformation to cartesian coordinates...
	Could not converge backtransformation.
	Using first guess instead.

	--- Internal Coordinate Step in ANG or DEG, aJ/ANG or AJ/DEG ---
	 ---------------------------------------------------------------------------
	   Coordinate                Previous        Force       Change         New 
	   ----------                --------       ------       ------       ------
	    1 R(1,4)          =      1.069867     0.056070     0.004287     1.074154
	    2 R(2,4)          =      1.070127     0.102203     0.007282     1.077409
	    3 R(3,4)          =      1.069714     0.090162     0.005565     1.075280
	    4 R(4,7)          =      1.540569    -0.018568     0.000893     1.541461
	    5 R(5,7)          =      1.070285     0.096536     0.005769     1.076054
	    6 R(6,7)          =      1.069752     0.102494     0.005903     1.075656
	    7 R(7,10)         =      1.540128     0.183587     0.011475     1.551603
	    8 R(8,10)         =      1.069698     0.102962     0.005930     1.075627
	    9 R(9,10)         =      1.069668     0.100161     0.005976     1.075644
	   10 R(10,14)        =      1.539422    -0.013989     0.001184     1.540606
	   11 R(11,14)        =      1.069756     0.104677     0.007425     1.077181
	   12 R(12,14)        =      1.069761     0.056826     0.004332     1.074093
	   13 R(13,14)        =      1.070201     0.087499     0.005414     1.075614
	   14 B(1,4,2)        =    109.502046    -0.000366    -0.282374   109.219672
	   15 B(1,4,3)        =    109.443496    -0.000246    -0.287587   109.155909
	   16 B(1,4,7)        =    109.458930     0.000556     0.494605   109.953535
	   17 B(2,4,3)        =    109.464170    -0.000293    -0.227102   109.237068
	   18 B(2,4,7)        =    109.478638     0.000054     0.057055   109.535693
	   19 B(3,4,7)        =    109.480039     0.000295     0.241422   109.721461
	   20 B(4,7,5)        =    109.450145    -0.001236    -0.931309   108.518836
	   21 B(4,7,6)        =    109.512662    -0.001046    -0.833648   108.679014
	   22 B(4,7,10)       =    109.507882     0.003861     3.031806   112.539688
	   23 B(5,7,6)        =    109.457017     0.000476     0.269792   109.726808
	   24 B(5,7,10)       =    109.417201    -0.001033    -0.783910   108.633291
	   25 B(6,7,10)       =    109.482360    -0.001024    -0.763515   108.718845
	   26 B(7,10,8)       =    109.452301    -0.001022    -0.761653   108.690648
	   27 B(7,10,9)       =    109.482155    -0.001042    -0.791646   108.690509
	   28 B(7,10,14)      =    109.504437     0.003866     3.035220   112.539657
	   29 B(8,10,9)       =    109.458846     0.000477     0.269993   109.728840
	   30 B(8,10,14)      =    109.478806    -0.001044    -0.831407   108.647400
	   31 B(9,10,14)      =    109.450772    -0.001237    -0.931190   108.519582
	   32 B(10,14,11)     =    109.488965     0.000055     0.057822   109.546787
	   33 B(10,14,12)     =    109.503926     0.000551     0.490197   109.994122
	   34 B(10,14,13)     =    109.524173     0.000290     0.237589   109.761762
	   35 B(11,14,12)     =    109.458432    -0.000362    -0.279405   109.179027
	   36 B(11,14,13)     =    109.438058    -0.000291    -0.226172   109.211886
	   37 B(12,14,13)     =    109.413709    -0.000243    -0.284922   109.128788
	   38 D(1,4,7,5)      =    179.923844     0.000117     0.408368   180.332212
	   39 D(1,4,7,6)      =    -60.081091    -0.000070    -0.311725   -60.392816
	   40 D(1,4,7,10)     =     59.980468     0.000039     0.097193    60.077661
	   41 D(2,4,7,5)      =    -60.041386     0.000100     0.401691   -59.639695
	   42 D(2,4,7,6)      =     59.953679    -0.000087    -0.318402    59.635276
	   43 D(2,4,7,10)     =   -179.984762     0.000022     0.090516  -179.894246
	   44 D(3,4,7,5)      =     59.959923     0.000067     0.306538    60.266461
	   45 D(3,4,7,6)      =    179.954988    -0.000120    -0.413556   179.541432
	   46 D(3,4,7,10)     =    -59.983452    -0.000011    -0.004638   -59.988090
	   47 D(4,7,10,8)     =    100.017110     0.000040     0.186820   100.203930
	   48 D(4,7,10,9)     =   -140.002936    -0.000116    -0.409955  -140.412891
	   49 D(4,7,10,14)    =    -20.000932    -0.000066    -0.183795   -20.184727
	   50 D(5,7,10,8)     =    -19.946435    -0.000009    -0.038153   -19.984588
	   51 D(5,7,10,9)     =    100.033519    -0.000165    -0.634928    99.398591
	   52 D(5,7,10,14)    =   -139.964477    -0.000116    -0.408767  -140.373245
	   53 D(6,7,10,8)     =   -139.902801     0.000145     0.554284  -139.348516
	   54 D(6,7,10,9)     =    -19.922846    -0.000011    -0.042491   -19.965337
	   55 D(6,7,10,14)    =    100.079158     0.000039     0.183669   100.262827
	   56 D(7,10,14,11)   =    179.989448     0.000023     0.094171   180.083619
	   57 D(7,10,14,12)   =     59.974196     0.000039     0.099289    60.073484
	   58 D(7,10,14,13)   =    -60.007849    -0.000011    -0.001624   -60.009472
	   59 D(8,10,14,11)   =     59.987626    -0.000087    -0.317569    59.670057
	   60 D(8,10,14,12)   =    -60.027626    -0.000070    -0.312451   -60.340078
	   61 D(8,10,14,13)   =    179.990329    -0.000120    -0.413364   179.576965
	   62 D(9,10,14,11)   =    -59.989345     0.000099     0.399684   -59.589660
	   63 D(9,10,14,12)   =    179.995403     0.000116     0.404802   180.400205
	   64 D(9,10,14,13)   =     60.013359     0.000066     0.303889    60.317248
	 ---------------------------------------------------------------------------
	Successfully symmetrized geometry.
	 Forces used to impose fixed constraints are not included.
	  Forces zeroed: 49 

  ==> Convergence Check <==

  Measures of convergence in internal coordinates in au.
  Criteria marked as inactive (o), active & met (*), and active & unmet ( ).
  --------------------------------------------------------------------------------------------- ~
   Step     Total Energy     Delta E     MAX Force     RMS Force      MAX Disp      RMS Disp    ~
  --------------------------------------------------------------------------------------------- ~
    Convergence Criteria    1.00e-06 *    3.00e-04 *             o    1.20e-03 *             o  ~
  --------------------------------------------------------------------------------------------- ~
      1    -158.14497454   -1.58e+02      5.08e-02      1.22e-02 o    5.30e-02      1.26e-02 o  ~
  ---------------------------------------------------------------------------------------------

	Writing optimization data to binary file.
	Structure for next step:
	Cartesian Geometry (in Angstrom)
	    H     0.9530330053   1.4995469115   0.2085623549
	    H    -0.4886576049   2.4027796082   0.6354853667
	    H     0.0076147826   1.0266130772   1.6051890008
	    C    -0.0416174225   1.4229110180   0.6068149894
	    H    -1.8842697421   0.4380204151   0.1353537860
	    H    -0.9380686189   0.9092302442  -1.2714021727
	    C    -0.8933000353   0.4935436532  -0.2803242352
	    H    -0.8593098128  -1.5779332671   0.3044232414
	    H    -0.4238194406  -1.2983704878  -1.3770362690
	    C    -0.3114584952  -0.9421396585  -0.3683320457
	    H     1.5351664229  -2.0127406112  -0.0716136320
	    H     1.3202768291  -0.6533570028   1.0147027778
	    H     1.7481734264  -0.3733398329  -0.6604954186
	    C     1.1816800477  -0.9982510525   0.0069757308
			--------------------------
			 OPTKING Finished Execution 
			--------------------------

    Structure for next step:
    Molecular point group: c1
    Full point group: C1

    Geometry (in Angstrom), charge = 0, multiplicity = 1:

    H            0.949565618580     1.498237693266     0.206687709566
    H           -0.492124991596     2.401470389971     0.633610721392
    H            0.004147395861     1.025303858996     1.603314355473
    C           -0.045084809221     1.421601799838     0.604940344065
    H           -1.887737128859     0.436711196937     0.133479140691
    H           -0.941536005664     0.907921026003    -1.273276818065
    C           -0.896767422039     0.492234434975    -0.282198880540
    H           -0.862777199539    -1.579242485289     0.302548596037
    H           -0.427286827328    -1.299679705989    -1.378910914325
    C           -0.314925881958    -0.943448876722    -0.370206691043
    H            1.531699036189    -2.014049829389    -0.073488277365
    H            1.316809442420    -0.654666221019     1.012828132509
    H            1.744706039630    -0.374649051092    -0.662370063925
    C            1.178212661026    -0.999560270679     0.005101085445

gradient() will perform analytic gradient computation.

*** tstart() called on gpu-2-6.local
*** at Wed Jun 14 14:32:32 2017

    SCF Algorithm Type (re)set to DF.

*** tstart() called on gpu-2-6.local
*** at Wed Jun 14 14:32:32 2017

   => Loading Basis Set <=

    Name: AUG-CC-PVTZ
    Role: ORBITAL
    Keyword: BASIS
    atoms 1-3, 5-6, 8-9, 11-13 entry H          line    34 file /cbio/jclab/home/chayas/anaconda/envs/py35/share/psi4/basis/aug-cc-pvtz.gbs 
    atoms 4, 7, 10, 14         entry C          line   221 file /cbio/jclab/home/chayas/anaconda/envs/py35/share/psi4/basis/aug-cc-pvtz.gbs 


         ---------------------------------------------------------
                                   SCF
            by Justin Turney, Rob Parrish, and Andy Simmonett
                              RHF Reference
                        1 Threads,    953 MiB Core
         ---------------------------------------------------------

  ==> Geometry <==

    Molecular point group: c1
    Full point group: C1

    Geometry (in Angstrom), charge = 0, multiplicity = 1:

       Center              X                  Y                   Z               Mass       
    ------------   -----------------  -----------------  -----------------  -----------------
           H          0.949565618580     1.498237693266     0.206687709566     1.007825032070
           H         -0.492124991596     2.401470389971     0.633610721392     1.007825032070
           H          0.004147395861     1.025303858996     1.603314355473     1.007825032070
           C         -0.045084809221     1.421601799838     0.604940344065    12.000000000000
           H         -1.887737128859     0.436711196937     0.133479140691     1.007825032070
           H         -0.941536005664     0.907921026003    -1.273276818065     1.007825032070
           C         -0.896767422039     0.492234434975    -0.282198880540    12.000000000000
           H         -0.862777199539    -1.579242485289     0.302548596037     1.007825032070
           H         -0.427286827328    -1.299679705989    -1.378910914325     1.007825032070
           C         -0.314925881958    -0.943448876722    -0.370206691043    12.000000000000
           H          1.531699036189    -2.014049829389    -0.073488277365     1.007825032070
           H          1.316809442420    -0.654666221019     1.012828132509     1.007825032070
           H          1.744706039630    -0.374649051092    -0.662370063925     1.007825032070
           C          1.178212661026    -0.999560270679     0.005101085445    12.000000000000

  Running in c1 symmetry.

  Rotational constants: A =      0.39073  B =      0.18974  C =      0.14210 [cm^-1]
  Rotational constants: A =  11713.81987  B =   5688.28422  C =   4260.03665 [MHz]
  Nuclear repulsion =  134.476676372257117

  Charge       = 0
  Multiplicity = 1
  Electrons    = 34
  Nalpha       = 17
  Nbeta        = 17

  ==> Algorithm <==

  SCF Algorithm Type is DF.
  DIIS enabled.
  MOM disabled.
  Fractional occupation disabled.
  Guess Type is READ.
  Energy threshold   = 1.00e-10
  Density threshold  = 1.00e-10
  Integral threshold = 0.00e+00

  ==> Primary Basis <==

  Basis Set: AUG-CC-PVTZ
    Blend: AUG-CC-PVTZ
    Number of shells: 146
    Number of basis function: 414
    Number of Cartesian functions: 470
    Spherical Harmonics?: true
    Max angular momentum: 3

   => Loading Basis Set <=

    Name: (AUG-CC-PVTZ AUX)
    Role: JKFIT
    Keyword: DF_BASIS_SCF
    atoms 1-3, 5-6, 8-9, 11-13 entry H          line    69 file /cbio/jclab/home/chayas/anaconda/envs/py35/share/psi4/basis/aug-cc-pvtz-jkfit.gbs 
    atoms 4, 7, 10, 14         entry C          line   161 file /cbio/jclab/home/chayas/anaconda/envs/py35/share/psi4/basis/aug-cc-pvtz-jkfit.gbs 

  Reading orbitals from file 180, no projection.

  ==> Pre-Iterations <==

   -------------------------------------------------------
    Irrep   Nso     Nmo     Nalpha   Nbeta   Ndocc  Nsocc
   -------------------------------------------------------
     A        414     414       0       0       0       0
   -------------------------------------------------------
    Total     414     414      17      17      17       0
   -------------------------------------------------------

  ==> Integral Setup <==

  ==> DFJK: Density-Fitted J/K Matrices <==

    J tasked:                  Yes
    K tasked:                  Yes
    wK tasked:                  No
    OpenMP threads:              1
    Integrals threads:           1
    Memory (MB):               715
    Algorithm:                Core
    Integral Cache:           NONE
    Schwarz Cutoff:          1E-12
    Fitting Condition:       1E-12

   => Auxiliary Basis Set <=

  Basis Set: (AUG-CC-PVTZ AUX)
    Blend: AUG-CC-PVTZ-JKFIT
    Number of shells: 260
    Number of basis function: 876
    Number of Cartesian functions: 1074
    Spherical Harmonics?: true
    Max angular momentum: 4

  Minimum eigenvalue in the overlap matrix is 4.4504707791E-06.
  Using Symmetric Orthogonalization.

  SCF Guess: Orbitals guess was supplied from a previous computation.

  ==> Iterations <==

                           Total Energy        Delta E     RMS |[F,P]|

   @DF-RHF iter   0:  -157.31383071716328   -1.57314e+02   2.84624e-04 
   @DF-RHF iter   1:  -157.34358295286563   -2.97522e-02   6.22893e-05 
   @DF-RHF iter   2:  -157.34404302577229   -4.60073e-04   2.78766e-05 DIIS
   @DF-RHF iter   3:  -157.34412161605064   -7.85903e-05   8.34044e-06 DIIS
   @DF-RHF iter   4:  -157.34413453416326   -1.29181e-05   9.14445e-07 DIIS
   @DF-RHF iter   5:  -157.34413471318732   -1.79024e-07   2.21037e-07 DIIS
   @DF-RHF iter   6:  -157.34413472220970   -9.02239e-09   6.69011e-08 DIIS
   @DF-RHF iter   7:  -157.34413472300236   -7.92653e-10   1.86884e-08 DIIS
   @DF-RHF iter   8:  -157.34413472306503   -6.26699e-11   3.99545e-09 DIIS
   @DF-RHF iter   9:  -157.34413472306707   -2.04636e-12   7.37059e-10 DIIS
   @DF-RHF iter  10:  -157.34413472306733   -2.55795e-13   1.38374e-10 DIIS
   @DF-RHF iter  11:  -157.34413472306653    7.95808e-13   2.27708e-11 DIIS

  ==> Post-Iterations <==

    Orbital Energies (a.u.)
    -----------------------

    Doubly Occupied:                                                      

       1A    -11.208971     2A    -11.208410     3A    -11.200790  
       4A    -11.200711     5A     -1.069344     6A     -0.970865  
       7A     -0.882376     8A     -0.770393     9A     -0.643336  
      10A     -0.618904    11A     -0.569366    12A     -0.533974  
      13A     -0.526922    14A     -0.517966    15A     -0.458089  
      16A     -0.453372    17A     -0.453247  

    Virtual:                                                              

      18A      0.031678    19A      0.038051    20A      0.040371  
      21A      0.040636    22A      0.058289    23A      0.058759  
      24A      0.060687    25A      0.062995    26A      0.068034  
      27A      0.085653    28A      0.111460    29A      0.122605  
      30A      0.125869    31A      0.128229    32A      0.129332  
      33A      0.135038    34A      0.138418    35A      0.141102  
      36A      0.145360    37A      0.154653    38A      0.162381  
      39A      0.167567    40A      0.179089    41A      0.188267  
      42A      0.199443    43A      0.214290    44A      0.225298  
      45A      0.246642    46A      0.256175    47A      0.278207  
      48A      0.285946    49A      0.296612    50A      0.301374  
      51A      0.311172    52A      0.313453    53A      0.315654  
      54A      0.321195    55A      0.326499    56A      0.326589  
      57A      0.339962    58A      0.351700    59A      0.354453  
      60A      0.358511    61A      0.363883    62A      0.364797  
      63A      0.378385    64A      0.381669    65A      0.391246  
      66A      0.395557    67A      0.405886    68A      0.416859  
      69A      0.417728    70A      0.423009    71A      0.431457  
      72A      0.433631    73A      0.444250    74A      0.451986  
      75A      0.454110    76A      0.458663    77A      0.468525  
      78A      0.476951    79A      0.478109    80A      0.484640  
      81A      0.490684    82A      0.493409    83A      0.497341  
      84A      0.507250    85A      0.508654    86A      0.531407  
      87A      0.541305    88A      0.551477    89A      0.552120  
      90A      0.555595    91A      0.573473    92A      0.577013  
      93A      0.578046    94A      0.587030    95A      0.593460  
      96A      0.606445    97A      0.607317    98A      0.612720  
      99A      0.629997   100A      0.635449   101A      0.636570  
     102A      0.657727   103A      0.676029   104A      0.690960  
     105A      0.698265   106A      0.705182   107A      0.736252  
     108A      0.794249   109A      0.796193   110A      0.815856  
     111A      0.820482   112A      0.822890   113A      0.823875  
     114A      0.841039   115A      0.841714   116A      0.862077  
     117A      0.867833   118A      0.869602   119A      0.873049  
     120A      0.887728   121A      0.899955   122A      0.904182  
     123A      0.920655   124A      0.924076   125A      0.926369  
     126A      0.937157   127A      0.954834   128A      0.956820  
     129A      0.964177   130A      0.974456   131A      0.983957  
     132A      0.987304   133A      0.992663   134A      0.997939  
     135A      1.015872   136A      1.033342   137A      1.039194  
     138A      1.059830   139A      1.061442   140A      1.074166  
     141A      1.087210   142A      1.094034   143A      1.099789  
     144A      1.105863   145A      1.114437   146A      1.115401  
     147A      1.130139   148A      1.142268   149A      1.152219  
     150A      1.154428   151A      1.176577   152A      1.179318  
     153A      1.203971   154A      1.210139   155A      1.211181  
     156A      1.215100   157A      1.219397   158A      1.238976  
     159A      1.247575   160A      1.267836   161A      1.268241  
     162A      1.270207   163A      1.308723   164A      1.316558  
     165A      1.329909   166A      1.334420   167A      1.353164  
     168A      1.365332   169A      1.391850   170A      1.398604  
     171A      1.405684   172A      1.413584   173A      1.421957  
     174A      1.429889   175A      1.461851   176A      1.478848  
     177A      1.480702   178A      1.503466   179A      1.516443  
     180A      1.526514   181A      1.531929   182A      1.543679  
     183A      1.547490   184A      1.556511   185A      1.578755  
     186A      1.590156   187A      1.611073   188A      1.622478  
     189A      1.639586   190A      1.649096   191A      1.656032  
     192A      1.676862   193A      1.679982   194A      1.687996  
     195A      1.689220   196A      1.702392   197A      1.704626  
     198A      1.717047   199A      1.721522   200A      1.749082  
     201A      1.757614   202A      1.774752   203A      1.794438  
     204A      1.798036   205A      1.804057   206A      1.817014  
     207A      1.818850   208A      1.826597   209A      1.857594  
     210A      1.876341   211A      1.890127   212A      1.894823  
     213A      1.904192   214A      1.926338   215A      1.931758  
     216A      1.967701   217A      1.972592   218A      1.984616  
     219A      1.999090   220A      2.007540   221A      2.016847  
     222A      2.022588   223A      2.045348   224A      2.058526  
     225A      2.075017   226A      2.076303   227A      2.106313  
     228A      2.112945   229A      2.114746   230A      2.134013  
     231A      2.165715   232A      2.169638   233A      2.192825  
     234A      2.240608   235A      2.264891   236A      2.270718  
     237A      2.283898   238A      2.299383   239A      2.306235  
     240A      2.316982   241A      2.347326   242A      2.361740  
     243A      2.374032   244A      2.375502   245A      2.398245  
     246A      2.418832   247A      2.447218   248A      2.454437  
     249A      2.470689   250A      2.485616   251A      2.524631  
     252A      2.540544   253A      2.577485   254A      2.586335  
     255A      2.624912   256A      2.694380   257A      2.790554  
     258A      2.872653   259A      3.013422   260A      3.043864  
     261A      3.228709   262A      3.263705   263A      3.350211  
     264A      3.365227   265A      3.392804   266A      3.443544  
     267A      3.447869   268A      3.507513   269A      3.513679  
     270A      3.531632   271A      3.542049   272A      3.553966  
     273A      3.583404   274A      3.591299   275A      3.607716  
     276A      3.643846   277A      3.651844   278A      3.671972  
     279A      3.678667   280A      3.686419   281A      3.711416  
     282A      3.745033   283A      3.747614   284A      3.754265  
     285A      3.771081   286A      3.791344   287A      3.808049  
     288A      3.823478   289A      3.838133   290A      3.847902  
     291A      3.848044   292A      3.877312   293A      3.885049  
     294A      3.898928   295A      3.925907   296A      3.950221  
     297A      3.981894   298A      3.985020   299A      4.004475  
     300A      4.009252   301A      4.016346   302A      4.041957  
     303A      4.042315   304A      4.059011   305A      4.071463  
     306A      4.074238   307A      4.105633   308A      4.127845  
     309A      4.138331   310A      4.153639   311A      4.176127  
     312A      4.188111   313A      4.240269   314A      4.267199  
     315A      4.290727   316A      4.294005   317A      4.306774  
     318A      4.315542   319A      4.324359   320A      4.351417  
     321A      4.365242   322A      4.381986   323A      4.386743  
     324A      4.437503   325A      4.438715   326A      4.468895  
     327A      4.524166   328A      4.535168   329A      4.579426  
     330A      4.603678   331A      4.614869   332A      4.631874  
     333A      4.643657   334A      4.721202   335A      4.727518  
     336A      4.728479   337A      4.737236   338A      4.777900  
     339A      4.781025   340A      4.822166   341A      4.829074  
     342A      4.880603   343A      4.893785   344A      4.914037  
     345A      4.926487   346A      4.943885   347A      4.945045  
     348A      4.959785   349A      4.978880   350A      4.992244  
     351A      5.029841   352A      5.080448   353A      5.100657  
     354A      5.106666   355A      5.121373   356A      5.127069  
     357A      5.145570   358A      5.184990   359A      5.223027  
     360A      5.235032   361A      5.237599   362A      5.251803  
     363A      5.295474   364A      5.330621   365A      5.334654  
     366A      5.349327   367A      5.379865   368A      5.414224  
     369A      5.430800   370A      5.448193   371A      5.463963  
     372A      5.472592   373A      5.528819   374A      5.533405  
     375A      5.554695   376A      5.564185   377A      5.590274  
     378A      5.670579   379A      5.684963   380A      5.698012  
     381A      5.719421   382A      5.741061   383A      5.765152  
     384A      5.812030   385A      5.832366   386A      5.876198  
     387A      5.907948   388A      5.925874   389A      5.976468  
     390A      6.019710   391A      6.078765   392A      6.091434  
     393A      6.114990   394A      6.161868   395A      6.219178  
     396A      6.239787   397A      6.284090   398A      6.328227  
     399A      6.338474   400A      6.384438   401A      6.440742  
     402A      6.519737   403A      6.540649   404A      6.625455  
     405A      6.748970   406A      6.792160   407A      6.872543  
     408A      6.874887   409A      6.977984   410A      6.986773  
     411A     17.881287   412A     18.359015   413A     18.867267  
     414A     19.883153  

    Final Occupation by Irrep:
              A 
    DOCC [    17 ]

  Energy converged.

  @DF-RHF Final Energy:  -157.34413472306653

   => Energetics <=

    Nuclear Repulsion Energy =            134.4766763722571170
    One-Electron Energy =                -477.0675510270569930
    Two-Electron Energy =                 185.2467399317333729
    DFT Exchange-Correlation Energy =       0.0000000000000000
    Empirical Dispersion Energy =           0.0000000000000000
    PCM Polarization Energy =               0.0000000000000000
    EFP Energy =                            0.0000000000000000
    Total Energy =                       -157.3441347230665315



Properties will be evaluated at   0.000000,   0.000000,   0.000000 Bohr

Properties computed using the SCF density matrix

  Nuclear Dipole Moment: (a.u.)
     X:     0.8770      Y:     0.3256      Z:     0.4729

  Electronic Dipole Moment: (a.u.)
     X:    -0.9021      Y:    -0.3353      Z:    -0.4864

  Dipole Moment: (a.u.)
     X:    -0.0251      Y:    -0.0097      Z:    -0.0135     Total:     0.0301

  Dipole Moment: (Debye)
     X:    -0.0639      Y:    -0.0246      Z:    -0.0343     Total:     0.0766


*** tstop() called on gpu-2-6.local at Wed Jun 14 14:33:39 2017
Module time:
	user time   =      66.76 seconds =       1.11 minutes
	system time =       0.42 seconds =       0.01 minutes
	total time  =         67 seconds =       1.12 minutes
Total time:
	user time   =     537.21 seconds =       8.95 minutes
	system time =       3.67 seconds =       0.06 minutes
	total time  =        542 seconds =       9.03 minutes

  //>>>>>>>>>>>>>>>>>>>>>>>>>>>>>>>>>>>//
  //               DFMP2               //
  //<<<<<<<<<<<<<<<<<<<<<<<<<<<<<<<<<<<//

   => Loading Basis Set <=

    Name: (AUG-CC-PVTZ AUX)
    Role: RIFIT
    Keyword: DF_BASIS_MP2
    atoms 1-3, 5-6, 8-9, 11-13 entry H          line    29 file /cbio/jclab/home/chayas/anaconda/envs/py35/share/psi4/basis/aug-cc-pvtz-ri.gbs 
    atoms 4, 7, 10, 14         entry C          line   147 file /cbio/jclab/home/chayas/anaconda/envs/py35/share/psi4/basis/aug-cc-pvtz-ri.gbs 

	 --------------------------------------------------------
	                          DF-MP2                         
	      2nd-Order Density-Fitted Moller-Plesset Theory     
	              RMP2 Wavefunction,   1 Threads             
	                                                         
	        Rob Parrish, Justin Turney, Andy Simmonett,      
	           Ed Hohenstein, and C. David Sherrill          
	 --------------------------------------------------------

   => Auxiliary Basis Set <=

  Basis Set: (AUG-CC-PVTZ AUX)
    Blend: AUG-CC-PVTZ-RI
    Number of shells: 252
    Number of basis function: 884
    Number of Cartesian functions: 1094
    Spherical Harmonics?: true
    Max angular momentum: 4

	 --------------------------------------------------------
	                 NBF =   414, NAUX =   884
	 --------------------------------------------------------
	   CLASS    FOCC     OCC    AOCC    AVIR     VIR    FVIR
	   PAIRS       0      17      17     397     397       0
	 --------------------------------------------------------


         ------------------------------------------------------------
                                     CPHF                           
                                  Rob Parrish                       
         ------------------------------------------------------------

  ==> Geometry <==

    Molecular point group: c1
    Full point group: C1

    Geometry (in Angstrom), charge = 0, multiplicity = 1:

       Center              X                  Y                   Z               Mass       
    ------------   -----------------  -----------------  -----------------  -----------------
           H          0.949565618580     1.498237693266     0.206687709566     1.007825032070
           H         -0.492124991596     2.401470389971     0.633610721392     1.007825032070
           H          0.004147395861     1.025303858996     1.603314355473     1.007825032070
           C         -0.045084809221     1.421601799838     0.604940344065    12.000000000000
           H         -1.887737128859     0.436711196937     0.133479140691     1.007825032070
           H         -0.941536005664     0.907921026003    -1.273276818065     1.007825032070
           C         -0.896767422039     0.492234434975    -0.282198880540    12.000000000000
           H         -0.862777199539    -1.579242485289     0.302548596037     1.007825032070
           H         -0.427286827328    -1.299679705989    -1.378910914325     1.007825032070
           C         -0.314925881958    -0.943448876722    -0.370206691043    12.000000000000
           H          1.531699036189    -2.014049829389    -0.073488277365     1.007825032070
           H          1.316809442420    -0.654666221019     1.012828132509     1.007825032070
           H          1.744706039630    -0.374649051092    -0.662370063925     1.007825032070
           C          1.178212661026    -0.999560270679     0.005101085445    12.000000000000

  Nuclear repulsion =  134.476676372257117
  Reference energy  = -157.344134723066531

  ==> Basis Set <==

  Basis Set: AUG-CC-PVTZ
    Blend: AUG-CC-PVTZ
    Number of shells: 146
    Number of basis function: 414
    Number of Cartesian functions: 470
    Spherical Harmonics?: true
    Max angular momentum: 3

  ==> CGRSolver (by Rob Parrish) <==

   Number of roots    =         1
   Preconditioning    =    JACOBI
   Convergence cutoff =     1E-06
   Maximum iterations =       100

  ==> CPHFRHamiltonian (by Rob Parrish) <== 

  ==> DFJK: Density-Fitted J/K Matrices <==

    J tasked:                  Yes
    K tasked:                  Yes
    wK tasked:                  No
    OpenMP threads:              1
    Integrals threads:           1
    Memory (MB):               715
    Algorithm:                Core
    Integral Cache:           NONE
    Schwarz Cutoff:          1E-12
    Fitting Condition:       1E-12

   => Auxiliary Basis Set <=

  Basis Set: (AUG-CC-PVTZ AUX)
    Blend: AUG-CC-PVTZ-JKFIT
    Number of shells: 260
    Number of basis function: 876
    Number of Cartesian functions: 1074
    Spherical Harmonics?: true
    Max angular momentum: 4

  ==> CPHF Iterations <==

  => Iterations <=

             Iter  Converged  Remaining    Residual
  CGR           1          0          1   8.604E-02
  CGR           2          0          1   1.369E-02
  CGR           3          0          1   3.159E-03
  CGR           4          0          1   7.638E-04
  CGR           5          0          1   1.779E-04
  CGR           6          0          1   3.039E-05
  CGR           7          0          1   5.450E-06
  CGR           8          0          1   1.221E-06
  CGR           9          1          0   1.757E-07

    CGRSolver converged.

  ==> DFCorrGrad: Density-Fitted Correlated Gradients <==

    OpenMP threads:              1
    Integrals threads:           1
    Memory (MB):               715
    Schwarz Cutoff:          0E+00
    Fitting Condition:       1E-12

   => Auxiliary Basis Set <=

  Basis Set: (AUG-CC-PVTZ AUX)
    Blend: AUG-CC-PVTZ-JKFIT
    Number of shells: 260
    Number of basis function: 876
    Number of Cartesian functions: 1074
    Spherical Harmonics?: true
    Max angular momentum: 4

	-----------------------------------------------------------
	 ==================> DF-MP2 Energies <==================== 
	-----------------------------------------------------------
	 Reference Energy          =    -157.3441347230665315 [Eh]
	 Singles Energy            =      -0.0000000000000000 [Eh]
	 Same-Spin Energy          =      -0.1662214720879046 [Eh]
	 Opposite-Spin Energy      =      -0.6409961859743002 [Eh]
	 Correlation Energy        =      -0.8072176580622048 [Eh]
	 Total Energy              =    -158.1513523811287314 [Eh]
	-----------------------------------------------------------
	 ================> DF-SCS-MP2 Energies <================== 
	-----------------------------------------------------------
	 SCS Same-Spin Scale       =       0.3333333333333333 [-]
	 SCS Opposite-Spin Scale   =       1.2000000000000000 [-]
	 SCS Same-Spin Energy      =      -0.0554071573626349 [Eh]
	 SCS Opposite-Spin Energy  =      -0.7691954231691602 [Eh]
	 SCS Correlation Energy    =      -0.8246025805317951 [Eh]
	 SCS Total Energy          =    -158.1687373035983342 [Eh]
	-----------------------------------------------------------


  -Total Gradient:
     Atom            X                  Y                   Z
    ------   -----------------  -----------------  -----------------
       1       -0.006597441229    -0.003443535951     0.000530260499
       2        0.001496069132    -0.006547245652    -0.001683930546
       3       -0.001319113139     0.000047988815    -0.008372435183
       4        0.016092320470     0.009330532864     0.012084336590
       5        0.008990561611    -0.001836209669     0.001483152190
       6        0.003341017932    -0.004628640167     0.006879892674
       7       -0.021052584031     0.004998232377    -0.011123943181
       8        0.004158278441     0.007433714765    -0.002860439096
       9        0.003838050059     0.006604185621     0.005657136216
      10       -0.014022293151    -0.018251541138    -0.008130160093
      11       -0.004132780627     0.005759794469     0.000326546681
      12       -0.003990625743    -0.000562154178    -0.006304791280
      13       -0.006665308526    -0.002959198885     0.003883638343
      14        0.019863848802     0.004054076731     0.007630736184


*** tstop() called on gpu-2-6.local at Wed Jun 14 14:37:57 2017
Module time:
	user time   =     321.84 seconds =       5.36 minutes
	system time =       2.80 seconds =       0.05 minutes
	total time  =        325 seconds =       5.42 minutes
Total time:
	user time   =     792.29 seconds =      13.20 minutes
	system time =       6.05 seconds =       0.10 minutes
	total time  =        800 seconds =      13.33 minutes

			-----------------------------------------
			 OPTKING 2.0: for geometry optimizations 
			  - R.A. King,  Bethel University        
			-----------------------------------------

	Previous internal coordinate definitions found.
	---Fragment 1 Geometry and Gradient---
	 H           1.7944189643        2.8312589222        0.3905831661
	 H          -0.9299814573        4.5381213533        1.1973507383
	 H           0.0078374423        1.9375434965        3.0298250368
	 C          -0.0851979422        2.6864380717        1.1431715770
	 H          -3.5673061844        0.8252645614        0.2522390204
	 H          -1.7792451950        1.7157220894       -2.4061444775
	 C          -1.6946448325        0.9301882753       -0.5332785992
	 H          -1.6304126208       -2.9843357946        0.5717339884
	 H          -0.8074550838       -2.4560387048       -2.6057639897
	 C          -0.5951236691       -1.7828599974       -0.6995892586
	 H           2.8944916964       -3.8060025955       -0.1388727182
	 H           2.4884092154       -1.2371398662        1.9139677901
	 H           3.2970165973       -0.7079841025       -1.2516980194
	 C           2.2264992556       -1.8888951649        0.0096396545
	            -0.0065974412       -0.0034435360        0.0005302605
	             0.0014960691       -0.0065472457       -0.0016839305
	            -0.0013191131        0.0000479888       -0.0083724352
	             0.0160923205        0.0093305329        0.0120843366
	             0.0089905616       -0.0018362097        0.0014831522
	             0.0033410179       -0.0046286402        0.0068798927
	            -0.0210525840        0.0049982324       -0.0111239432
	             0.0041582784        0.0074337148       -0.0028604391
	             0.0038380501        0.0066041856        0.0056571362
	            -0.0140222932       -0.0182515411       -0.0081301601
	            -0.0041327806        0.0057597945        0.0003265467
	            -0.0039906257       -0.0005621542       -0.0063047913
	            -0.0066653085       -0.0029591989        0.0038836383
	             0.0198638488        0.0040540767        0.0076307362

	---Fragment 1 Intrafragment Coordinates---
	 - Coordinate -           - BOHR/RAD -       - ANG/DEG -
	 R(1,4)           =         2.029858	       1.074154
	 R(2,4)           =         2.036007	       1.077409
	 R(3,4)           =         2.031984	       1.075280
	 R(4,7)           =         2.912940	       1.541461
	 R(5,7)           =         2.033447	       1.076054
	 R(6,7)           =         2.032695	       1.075656
	 R(7,10)          =         2.932105	       1.551603
	 R(8,10)          =         2.032641	       1.075627
	 R(9,10)          =         2.032672	       1.075644
	 R(10,14)         =         2.911324	       1.540606
	 R(11,14)         =         2.035576	       1.077181
	 R(12,14)         =         2.029741	       1.074093
	 R(13,14)         =         2.032617	       1.075614
	 B(1,4,2)         =         1.906243	     109.219672
	 B(1,4,3)         =         1.905130	     109.155909
	 B(1,4,7)         =         1.919051	     109.953535
	 B(2,4,3)         =         1.906547	     109.237068
	 B(2,4,7)         =         1.911758	     109.535693
	 B(3,4,7)         =         1.915001	     109.721461
	 B(4,7,5)         =         1.894011	     108.518836
	 B(4,7,6)         =         1.896807	     108.679014
	 B(4,7,10)        =         1.964188	     112.539688
	 B(5,7,6)         =         1.915094	     109.726808
	 B(5,7,10)        =         1.896009	     108.633291
	 B(6,7,10)        =         1.897502	     108.718845
	 B(7,10,8)        =         1.897010	     108.690648
	 B(7,10,9)        =         1.897007	     108.690509
	 B(7,10,14)       =         1.964188	     112.539657
	 B(8,10,9)        =         1.915130	     109.728840
	 B(8,10,14)       =         1.896255	     108.647400
	 B(9,10,14)       =         1.894024	     108.519582
	 B(10,14,11)      =         1.911952	     109.546787
	 B(10,14,12)      =         1.919760	     109.994122
	 B(10,14,13)      =         1.915704	     109.761762
	 B(11,14,12)      =         1.905533	     109.179027
	 B(11,14,13)      =         1.906107	     109.211886
	 B(12,14,13)      =         1.904657	     109.128788
	 D(1,4,7,5)       =        -3.135794	    -179.667788
	 D(1,4,7,6)       =        -1.054053	     -60.392816
	 D(1,4,7,10)      =         1.048553	      60.077661
	 D(2,4,7,5)       =        -1.040909	     -59.639695
	 D(2,4,7,6)       =         1.040832	      59.635276
	 D(2,4,7,10)      =        -3.139747	    -179.894246
	 D(3,4,7,5)       =         1.051848	      60.266461
	 D(3,4,7,6)       =         3.133589	     179.541432
	 D(3,4,7,10)      =        -1.046990	     -59.988090
	 D(4,7,10,8)      =         1.748889	     100.203930
	 D(4,7,10,9)      =        -2.450667	    -140.412891
	 D(4,7,10,14)     =        -0.352290	     -20.184727
	 D(5,7,10,8)      =        -0.348797	     -19.984588
	 D(5,7,10,9)      =         1.734833	      99.398591
	 D(5,7,10,14)     =        -2.449975	    -140.373245
	 D(6,7,10,8)      =        -2.432090	    -139.348516
	 D(6,7,10,9)      =        -0.348461	     -19.965337
	 D(6,7,10,14)     =         1.749916	     100.262827
	 D(7,10,14,11)    =        -3.140133	    -179.916381
	 D(7,10,14,12)    =         1.048480	      60.073484
	 D(7,10,14,13)    =        -1.047363	     -60.009472
	 D(8,10,14,11)    =         1.041439	      59.670057
	 D(8,10,14,12)    =        -1.053133	     -60.340078
	 D(8,10,14,13)    =         3.134209	     179.576965
	 D(9,10,14,11)    =        -1.040036	     -59.589660
	 D(9,10,14,12)    =        -3.134608	    -179.599795
	 D(9,10,14,13)    =         1.052735	      60.317248

	Current energy   :      -158.1513523811

	Energy change for the previous step:
		Projected    :        -0.0092277026
		Actual       :        -0.0063778424

	Performing BFGS update.
	Previous computed or guess Hessian on step 1.
	Steps to be used in Hessian update: 1
	Adding user-defined constraint: Fragment 1; Coordinate 49:
		Value =    -0.352290; Fixed value    =    -0.349070
		Force =     0.001690; Force constant =     0.525000
	Removing off-diagonal coupling between coordinate 49 and others.
	Taking RFO optimization step.
	Going to follow RFO solution 1.
	Using RFO vector 1.

	Determining step-restricting scale parameter for RS-RFO.
	Maximum step size allowed    0.10000

	 Iter      |step|        alpha        rfo_root  
	------------------------------------------------
	    0     0.18654       1.00000           1
	    1     0.14304       5.87324           1
	    2     0.11647      14.59501           1
	    3     0.10366      22.92891           1
	    4     0.10024      25.94541           1
	    5     0.10000      26.17463           1
	------------------------------------------------
	Norm of target step-size    0.10000
	Projected energy change by RFO approximation:        -0.0039946246

	Back-transformation to cartesian coordinates...
	Successfully converged to displaced geometry.

	--- Internal Coordinate Step in ANG or DEG, aJ/ANG or AJ/DEG ---
	 ---------------------------------------------------------------------------
	   Coordinate                Previous        Force       Change         New 
	   ----------                --------       ------       ------       ------
	    1 R(1,4)          =      1.074154     0.053975     0.009516     1.083670
	    2 R(2,4)          =      1.077409     0.054541     0.008225     1.085633
	    3 R(3,4)          =      1.075280     0.064688     0.010169     1.085449
	    4 R(4,7)          =      1.541461    -0.053115    -0.011382     1.530079
	    5 R(5,7)          =      1.076054     0.062713     0.009480     1.085534
	    6 R(6,7)          =      1.075656     0.068107     0.010253     1.085909
	    7 R(7,10)         =      1.551603     0.018880    -0.004139     1.547464
	    8 R(8,10)         =      1.075627     0.068390     0.010293     1.085920
	    9 R(9,10)         =      1.075644     0.065030     0.009813     1.085457
	   10 R(10,14)        =      1.540606    -0.049747    -0.010730     1.529876
	   11 R(11,14)        =      1.077181     0.056061     0.008444     1.085624
	   12 R(12,14)        =      1.074093     0.054464     0.009587     1.083680
	   13 R(13,14)        =      1.075614     0.062941     0.009917     1.085531
	   14 B(1,4,2)        =    109.219672    -0.000222    -0.605544   108.614128
	   15 B(1,4,3)        =    109.155909    -0.000208    -0.693788   108.462120
	   16 B(1,4,7)        =    109.953535     0.000305     0.809981   110.763516
	   17 B(2,4,3)        =    109.237068    -0.000221    -0.685351   108.551717
	   18 B(2,4,7)        =    109.535693     0.000085     0.290585   109.826278
	   19 B(3,4,7)        =    109.721461     0.000255     0.841527   110.562989
	   20 B(4,7,5)        =    108.518836    -0.000346    -0.197011   108.321825
	   21 B(4,7,6)        =    108.679014    -0.000318    -0.352690   108.326323
	   22 B(4,7,10)       =    112.539688     0.001183     1.363239   113.902927
	   23 B(5,7,6)        =    109.726808     0.000004    -0.749295   108.977513
	   24 B(5,7,10)       =    108.633291    -0.000275    -0.079038   108.554253
	   25 B(6,7,10)       =    108.718845    -0.000260    -0.050404   108.668441
	   26 B(7,10,8)       =    108.690648    -0.000259    -0.037898   108.652749
	   27 B(7,10,9)       =    108.690509    -0.000283    -0.125809   108.564700
	   28 B(7,10,14)      =    112.539657     0.001187     1.375594   113.915251
	   29 B(8,10,9)       =    109.728840     0.000004    -0.747858   108.980982
	   30 B(8,10,14)      =    108.647400    -0.000316    -0.347666   108.299734
	   31 B(9,10,14)      =    108.519582    -0.000345    -0.181803   108.337780
	   32 B(10,14,11)     =    109.546787     0.000085     0.294970   109.841757
	   33 B(10,14,12)     =    109.994122     0.000300     0.796652   110.790774
	   34 B(10,14,13)     =    109.761762     0.000250     0.830634   110.592396
	   35 B(11,14,12)     =    109.179027    -0.000218    -0.598334   108.580693
	   36 B(11,14,13)     =    109.211886    -0.000218    -0.679285   108.532602
	   37 B(12,14,13)     =    109.128788    -0.000205    -0.688727   108.440061
	   38 D(1,4,7,5)      =   -179.667788     0.000053     0.710318  -178.957470
	   39 D(1,4,7,6)      =    -60.392816    -0.000033    -0.494720   -60.887536
	   40 D(1,4,7,10)     =     60.077661     0.000015     0.074153    60.151814
	   41 D(2,4,7,5)      =    -59.639695     0.000046     0.653583   -58.986112
	   42 D(2,4,7,6)      =     59.635276    -0.000041    -0.551455    59.083822
[...]

  ==> DFCorrGrad: Density-Fitted Correlated Gradients <==

    OpenMP threads:              1
    Integrals threads:           1
    Memory (MB):               715
    Schwarz Cutoff:          0E+00
    Fitting Condition:       1E-12

   => Auxiliary Basis Set <=

  Basis Set: (AUG-CC-PVTZ AUX)
    Blend: AUG-CC-PVTZ-JKFIT
    Number of shells: 260
    Number of basis function: 876
    Number of Cartesian functions: 1074
    Spherical Harmonics?: true
    Max angular momentum: 4

	-----------------------------------------------------------
	 ==================> DF-MP2 Energies <==================== 
	-----------------------------------------------------------
	 Reference Energy          =    -157.3483953861490932 [Eh]
	 Singles Energy            =      -0.0000000000000000 [Eh]
	 Same-Spin Energy          =      -0.1658423664102976 [Eh]
	 Opposite-Spin Energy      =      -0.6406451140485730 [Eh]
	 Correlation Energy        =      -0.8064874804588706 [Eh]
	 Total Energy              =    -158.1548828666079771 [Eh]
	-----------------------------------------------------------
	 ================> DF-SCS-MP2 Energies <================== 
	-----------------------------------------------------------
	 SCS Same-Spin Scale       =       0.3333333333333333 [-]
	 SCS Opposite-Spin Scale   =       1.2000000000000000 [-]
	 SCS Same-Spin Energy      =      -0.0552807888034325 [Eh]
	 SCS Opposite-Spin Energy  =      -0.7687741368582877 [Eh]
	 SCS Correlation Energy    =      -0.8240549256617202 [Eh]
	 SCS Total Energy          =    -158.1724503118108203 [Eh]
	-----------------------------------------------------------


  -Total Gradient:
     Atom            X                  Y                   Z
    ------   -----------------  -----------------  -----------------
       1        0.000004834872     0.000004748564     0.000004236847
       2        0.000004528534    -0.000008580974     0.000000808395
       3        0.000001358515    -0.000006064100    -0.000000308532
       4        0.002048717528     0.001098644650    -0.003447433522
       5        0.000007730884     0.000010699482     0.000009921935
       6        0.000011388710    -0.000020326575     0.000010565744
       7       -0.003289458052    -0.001830818828     0.006601057946
       8        0.000001907984     0.000025060556    -0.000004245638
       9        0.000016231327    -0.000001846104     0.000001369576
      10        0.001998136166     0.001357108722    -0.007205448608
      11       -0.000002101656     0.000009757793     0.000000549480
      12        0.000007946826     0.000000095959     0.000001778737
      13       -0.000002607746     0.000005301821    -0.000000182125
      14       -0.000808613893    -0.000643780965     0.004027329767


*** tstop() called on gpu-2-6.local at Wed Jun 14 15:12:51 2017
Module time:
	user time   =     309.10 seconds =       5.15 minutes
	system time =       2.72 seconds =       0.05 minutes
	total time  =        312 seconds =       5.20 minutes
Total time:
	user time   =    2867.50 seconds =      47.79 minutes
	system time =      23.58 seconds =       0.39 minutes
	total time  =       2894 seconds =      48.23 minutes

			-----------------------------------------
			 OPTKING 2.0: for geometry optimizations 
			  - R.A. King,  Bethel University        
			-----------------------------------------

	Previous internal coordinate definitions found.
	---Fragment 1 Geometry and Gradient---
	 H           1.7616315898        3.0274111181        0.3171563083
	 H          -1.0236987873        4.6099687039        1.1838965057
	 H           0.1275341255        2.1328666672        3.0673720748
	 C          -0.1073547513        2.7708606451        1.1258811021
	 H          -3.5806413154        0.8277374054        0.3524272717
	 H          -1.8720373563        1.7173633449       -2.3117952421
	 C          -1.6761302956        0.9274774701       -0.4184324080
	 H          -1.5618114374       -2.9765909915        0.7062875963
	 H          -1.0196949854       -2.5147394095       -2.5033297926
	 C          -0.5878084962       -1.7576877788       -0.6400846571
	 H           2.8275111821       -3.9484940405       -0.3404606296
	 H           2.7024080724       -1.3903603850        1.7700091565
	 H           3.3369276127       -0.8624552997       -1.4475762434
	 C           2.2286754921       -1.9929486545       -0.1340473686
	             0.0000048349        0.0000047486        0.0000042368
	             0.0000045285       -0.0000085810        0.0000008084
	             0.0000013585       -0.0000060641       -0.0000003085
	             0.0020487175        0.0010986447       -0.0034474335
	             0.0000077309        0.0000106995        0.0000099219
	             0.0000113887       -0.0000203266        0.0000105657
	            -0.0032894581       -0.0018308188        0.0066010579
	             0.0000019080        0.0000250606       -0.0000042456
	             0.0000162313       -0.0000018461        0.0000013696
	             0.0019981362        0.0013571087       -0.0072054486
	            -0.0000021017        0.0000097578        0.0000005495
	             0.0000079468        0.0000000960        0.0000017787
	            -0.0000026077        0.0000053018       -0.0000001821
	            -0.0008086139       -0.0006437810        0.0040273298

	---Fragment 1 Intrafragment Coordinates---
	 - Coordinate -           - BOHR/RAD -       - ANG/DEG -
	 R(1,4)           =         2.052551	       1.086163
	 R(2,4)           =         2.055571	       1.087761
	 R(3,4)           =         2.057084	       1.088562
	 R(4,7)           =         2.871241	       1.519395
	 R(5,7)           =         2.057021	       1.088529
	 R(6,7)           =         2.060855	       1.090557
	 R(7,10)          =         2.905802	       1.537684
	 R(8,10)          =         2.060855	       1.090558
	 R(9,10)          =         2.057021	       1.088529
	 R(10,14)         =         2.871237	       1.519393
	 R(11,14)         =         2.055570	       1.087761
	 R(12,14)         =         2.052551	       1.086163
	 R(13,14)         =         2.057084	       1.088562
	 B(1,4,2)         =         1.880955	     107.770774
	 B(1,4,3)         =         1.882479	     107.858121
	 B(1,4,7)         =         1.945329	     111.459152
	 B(2,4,3)         =         1.877324	     107.562714
	 B(2,4,7)         =         1.924125	     110.244213
	 B(3,4,7)         =         1.950777	     111.771273
	 B(4,7,5)         =         1.912866	     109.599133
	 B(4,7,6)         =         1.875499	     107.458159
	 B(4,7,10)        =         2.014912	     115.445928
	 B(5,7,6)         =         1.849241	     105.953683
	 B(5,7,10)        =         1.907677	     109.301856
	 B(6,7,10)        =         1.896211	     108.644913
	 B(7,10,8)        =         1.896209	     108.644761
	 B(7,10,9)        =         1.907678	     109.301902
	 B(7,10,14)       =         2.014917	     115.446222
	 B(8,10,9)        =         1.849240	     105.953634
	 B(8,10,14)       =         1.875494	     107.457882
	 B(9,10,14)       =         1.912868	     109.599235
	 B(10,14,11)      =         1.924122	     110.244087
	 B(10,14,12)      =         1.945330	     111.459193
	 B(10,14,13)      =         1.950782	     111.771588
	 B(11,14,12)      =         1.880953	     107.770692
	 B(11,14,13)      =         1.877323	     107.562688
	 B(12,14,13)      =         1.882477	     107.857982
	 D(1,4,7,5)       =        -3.063064	    -175.500662
	 D(1,4,7,6)       =        -1.061207	     -60.802705
	 D(1,4,7,10)      =         1.057361	      60.582351
	 D(2,4,7,5)       =        -0.975000	     -55.863379
	 D(2,4,7,6)       =         1.026857	      58.834577
	 D(2,4,7,10)      =        -3.137759	    -179.780367
	 D(3,4,7,5)       =         1.112039	      63.715164
	 D(3,4,7,6)       =         3.113896	     178.413120
	 D(3,4,7,10)      =        -1.050720	     -60.201824
	 D(4,7,10,8)      =         1.746079	     100.042938
	 D(4,7,10,9)      =        -2.526762	    -144.772794
	 D(4,7,10,14)     =        -0.361279	     -20.699741
	 D(5,7,10,8)      =        -0.419398	     -24.029722
	 D(5,7,10,9)      =         1.590947	      91.154546
	 D(5,7,10,14)     =        -2.526755	    -144.772401
	 D(6,7,10,8)      =        -2.429745	    -139.214106
	 D(6,7,10,9)      =        -0.419400	     -24.029839
	 D(6,7,10,14)     =         1.746083	     100.043214
	 D(7,10,14,11)    =        -3.137785	    -179.781815
	 D(7,10,14,12)    =         1.057339	      60.581061
	 D(7,10,14,13)    =        -1.050744	     -60.203183
	 D(8,10,14,11)    =         1.026835	      58.833339
	 D(8,10,14,12)    =        -1.061226	     -60.803784
	 D(8,10,14,13)    =         3.113876	     178.411971
	 D(9,10,14,11)    =        -0.975019	     -55.864463
	 D(9,10,14,12)    =        -3.063081	    -175.501587
	 D(9,10,14,13)    =         1.112022	      63.714169

	Current energy   :      -158.1548828666

	Energy change for the previous step:
		Projected    :         0.0000000453
		Actual       :         0.0000003872

	Performing BFGS update.
	Previous computed or guess Hessian on step 1.
	Steps to be used in Hessian update: 7 6
	Adding user-defined constraint: Fragment 1; Coordinate 49:
		Value =    -0.361279; Fixed value    =    -0.349070
		Force =     0.008241; Force constant =     0.675000
	Removing off-diagonal coupling between coordinate 49 and others.
	Taking RFO optimization step.
	Going to follow RFO solution 1.
	Rejecting RFO root 1 because normalization gives large value.
	Rejecting RFO root 2 because normalization gives large value.
	Rejecting RFO root 3 because normalization gives large value.
	Using RFO vector 4.
	Norm of target step-size    0.00118
	Projected energy change by RFO approximation:        -0.0000000505

	Back-transformation to cartesian coordinates...
	Successfully converged to displaced geometry.

	--- Internal Coordinate Step in ANG or DEG, aJ/ANG or AJ/DEG ---
	 ---------------------------------------------------------------------------
	   Coordinate                Previous        Force       Change         New 
	   ----------                --------       ------       ------       ------
	    1 R(1,4)          =      1.086163    -0.000027     0.000007     1.086170
	    2 R(2,4)          =      1.087761     0.000080     0.000017     1.087778
	    3 R(3,4)          =      1.088562    -0.000014     0.000002     1.088565
	    4 R(4,7)          =      1.519395     0.000226     0.000010     1.519405
	    5 R(5,7)          =      1.088529     0.000033     0.000019     1.088547
	    6 R(6,7)          =      1.090557     0.000153     0.000008     1.090565
	    7 R(7,10)         =      1.537684    -0.000011    -0.000018     1.537667
	    8 R(8,10)         =      1.090558     0.000152     0.000007     1.090565
	    9 R(9,10)         =      1.088529     0.000033     0.000019     1.088547
	   10 R(10,14)        =      1.519393     0.000234     0.000012     1.519405
	   11 R(11,14)        =      1.087761     0.000082     0.000018     1.087778
	   12 R(12,14)        =      1.086163    -0.000029     0.000007     1.086170
	   13 R(13,14)        =      1.088562    -0.000013     0.000003     1.088565
	   14 B(1,4,2)        =    107.770774     0.000000    -0.002838   107.767936
	   15 B(1,4,3)        =    107.858121     0.000000    -0.001208   107.856913
	   16 B(1,4,7)        =    111.459152    -0.000001     0.001678   111.460830
	   17 B(2,4,3)        =    107.562714    -0.000000    -0.002253   107.560460
	   18 B(2,4,7)        =    110.244213    -0.000000     0.002817   110.247030
	   19 B(3,4,7)        =    111.771273     0.000001     0.001437   111.772710
	   20 B(4,7,5)        =    109.599133     0.000012    -0.004968   109.594165
	   21 B(4,7,6)        =    107.458159    -0.000013     0.014203   107.472362
	   22 B(4,7,10)       =    115.445928     0.000003     0.003079   115.449007
	   23 B(5,7,6)        =    105.953683     0.000000    -0.015888   105.937795
	   24 B(5,7,10)       =    109.301856    -0.000002     0.007656   109.309512
	   25 B(6,7,10)       =    108.644913     0.000000    -0.005860   108.639053
	   26 B(7,10,8)       =    108.644761     0.000001    -0.005678   108.639083
	   27 B(7,10,9)       =    109.301902    -0.000002     0.007471   109.309373
	   28 B(7,10,14)      =    115.446222     0.000003     0.003106   115.449327
	   29 B(8,10,9)       =    105.953634     0.000000    -0.015884   105.937750
	   30 B(8,10,14)      =    107.457882    -0.000013     0.014830   107.472711
	   31 B(9,10,14)      =    109.599235     0.000012    -0.005600   109.593635
	   32 B(10,14,11)     =    110.244087    -0.000000     0.002817   110.246904
	   33 B(10,14,12)     =    111.459193    -0.000001     0.001713   111.460906
	   34 B(10,14,13)     =    111.771588     0.000001     0.001359   111.772948
	   35 B(11,14,12)     =    107.770692     0.000000    -0.002880   107.767812
	   36 B(11,14,13)     =    107.562688    -0.000000    -0.002174   107.560515
	   37 B(12,14,13)     =    107.857982     0.000000    -0.001199   107.856783
	   38 D(1,4,7,5)      =   -175.500662     0.000001     0.012575  -175.488087
	   39 D(1,4,7,6)      =    -60.802705     0.000001    -0.001049   -60.803754
	   40 D(1,4,7,10)     =     60.582351    -0.000001     0.004072    60.586423
	   41 D(2,4,7,5)      =    -55.863379     0.000001     0.011967   -55.851412
	   42 D(2,4,7,6)      =     58.834577     0.000000    -0.001657    58.832920
	   43 D(2,4,7,10)     =   -179.780367    -0.000001     0.003464  -179.776903
	   44 D(3,4,7,5)      =     63.715164     0.000001     0.011950    63.727114
	   45 D(3,4,7,6)      =    178.413120     0.000000    -0.001674   178.411446
	   46 D(3,4,7,10)     =    -60.201824    -0.000001     0.003447   -60.198377
	   47 D(4,7,10,8)     =    100.042938     0.000003     0.017786   100.060724
	   48 D(4,7,10,9)     =   -144.772794     0.000003    -0.000169  -144.772963
	   49 D(4,7,10,14)    =    -20.699741     0.000007     0.000732   -20.699009
	   50 D(5,7,10,8)     =    -24.029722    -0.000000     0.015911   -24.013811
	   51 D(5,7,10,9)     =     91.154546    -0.000000    -0.002044    91.152502
	   52 D(5,7,10,14)    =   -144.772401     0.000003    -0.001143  -144.773544
	   53 D(6,7,10,8)     =   -139.214106     0.000000     0.033871  -139.180236
	   54 D(6,7,10,9)     =    -24.029839    -0.000000     0.015916   -24.013923
	   55 D(6,7,10,14)    =    100.043214     0.000003     0.016817   100.060032
	   56 D(7,10,14,11)   =   -179.781815    -0.000001     0.004518  -179.777297
	   57 D(7,10,14,12)   =     60.581061    -0.000001     0.005157    60.586218
	   58 D(7,10,14,13)   =    -60.203183    -0.000001     0.004551   -60.198632
	   59 D(8,10,14,11)   =     58.833339     0.000000    -0.001325    58.832014
	   60 D(8,10,14,12)   =    -60.803784     0.000001    -0.000686   -60.804470
	   61 D(8,10,14,13)   =    178.411971     0.000000    -0.001292   178.410679
	   62 D(9,10,14,11)   =    -55.864463     0.000001     0.012280   -55.852183
	   63 D(9,10,14,12)   =   -175.501587     0.000001     0.012919  -175.488667
	   64 D(9,10,14,13)   =     63.714169     0.000001     0.012313    63.726482
	 ---------------------------------------------------------------------------
	Successfully symmetrized geometry.
	 Forces used to impose fixed constraints are not included.
	  Forces zeroed: 49 

  ==> Convergence Check <==

  Measures of convergence in internal coordinates in au.
  Criteria marked as inactive (o), active & met (*), and active & unmet ( ).
  ---------------------------------------------------------------------------------------------
   Step     Total Energy     Delta E     MAX Force     RMS Force      MAX Disp      RMS Disp   
  ---------------------------------------------------------------------------------------------
    Convergence Criteria    1.00e-06 *    3.00e-04 *             o    1.20e-03 *             o
  ---------------------------------------------------------------------------------------------
      8    -158.15488287    3.87e-07 *    1.98e-04 *    6.94e-05 o    5.91e-04 *    1.47e-04 o  ~
  ---------------------------------------------------------------------------------------------


  **** Optimization is complete! (in 8 steps) ****

  ==> Optimization Summary <==

  Measures of convergence in internal coordinates in au.
  --------------------------------------------------------------------------------------------------------------- ~
   Step         Total Energy             Delta E       MAX Force       RMS Force        MAX Disp        RMS Disp  ~
  --------------------------------------------------------------------------------------------------------------- ~
      1    -158.144974538761   -158.144974538761      0.05080646      0.01217887      0.05297458      0.01262338  ~
      2    -158.151352381129     -0.006377842367      0.01559537      0.00482286      0.02434136      0.01254392  ~
      3    -158.153757071470     -0.002404690341      0.00668626      0.00191179      0.04293829      0.01251059  ~
      4    -158.154582743214     -0.000825671744      0.00278744      0.00078583      0.05068973      0.01249293  ~
      5    -158.154854366078     -0.000271622864      0.00065497      0.00020702      0.02109200      0.00872055  ~
      6    -158.154880660937     -0.000026294858      0.00023854      0.00008287      0.00495183      0.00208289  ~
      7    -158.154883253791     -0.000002592855      0.00030582      0.00006737      0.00174361      0.00086686  ~
      8    -158.154882866608      0.000000387183      0.00039483      0.00008519      0.00059115      0.00014720  ~
  --------------------------------------------------------------------------------------------------------------- ~

	Writing optimization data to binary file.
	Final energy is   -158.1548828666080
	Final (previous) structure:
	Cartesian Geometry (in Angstrom)
	    H     0.9322152872   1.6020369647   0.1678318899
	    H    -0.5417180667   2.4394903704   0.6264910481
	    H     0.0674881525   1.1286644293   1.6231833922
	    C    -0.0568096876   1.4662763015   0.5957906188
	    H    -1.8947937762   0.4380197696   0.1864964799
	    H    -0.9906395026   0.9087895410  -1.2233493530
	    C    -0.8869699510   0.4907999387  -0.2214248937
	    H    -0.8264750168  -1.5751441120   0.3737512987
	    H    -0.5395993460  -1.3307427810  -1.3247050719
	    C    -0.3110548592  -0.9301283123  -0.3387182121
	    H     1.4962544746  -2.0894530545  -0.1801640056
	    H     1.4300527602  -0.7357470275   0.9366485046
	    H     1.7658260394  -0.4563916880  -0.7660243557
	    C     1.1793642757  -1.0546230058  -0.0709348123
	Saving final (previous) structure.
			--------------------------
			 OPTKING Finished Execution 
			--------------------------

    Final optimized geometry and variables:
    Molecular point group: c1
    Full point group: C1

    Geometry (in Angstrom), charge = 0, multiplicity = 1:

    H            0.932215287248     1.602036964727     0.167831889901
    H           -0.541718066686     2.439490370419     0.626491048127
    H            0.067488152519     1.128664429254     1.623183392229
    C           -0.056809687648     1.466276301544     0.595790618837
    H           -1.894793776226     0.438019769619     0.186496479854
    H           -0.990639502588     0.908789540986    -1.223349353032
    C           -0.886969951035     0.490799938674    -0.221424893663
    H           -0.826475016791    -1.575144112018     0.373751298657
    H           -0.539599345981    -1.330742781035    -1.324705071853
    C           -0.311054859196    -0.930128312342    -0.338718212123
    H            1.496254474578    -2.089453054469    -0.180164005601
    H            1.430052760199    -0.735747027458     0.936648504605
    H            1.765826039375    -0.456391688025    -0.766024355728
    C            1.179364275746    -1.054623005830    -0.070934812324

	Cleaning optimization helper files.

*** Psi4 exiting successfully. Buy a developer a beer!
