
    -----------------------------------------------------------------------
          Psi4: An Open-Source Ab Initio Electronic Structure Package
                               Psi4 1.1 release

                         Git: Rev {HEAD} add49b9 


    R. M. Parrish, L. A. Burns, D. G. A. Smith, A. C. Simmonett,
    A. E. DePrince III, E. G. Hohenstein, U. Bozkaya, A. Yu. Sokolov,
    R. Di Remigio, R. M. Richard, J. F. Gonthier, A. M. James,
    H. R. McAlexander, A. Kumar, M. Saitow, X. Wang, B. P. Pritchard,
    P. Verma, H. F. Schaefer III, K. Patkowski, R. A. King, E. F. Valeev,
    F. A. Evangelista, J. M. Turney, T. D. Crawford, and C. D. Sherrill,
    J. Chem. Theory Comput. in press (2017).
    (doi: 10.1021/acs.jctc.7b00174)

    -----------------------------------------------------------------------


    Psi4 started on: Wednesday, 14 June 2017 02:22PM

    Process ID:  26603
    PSIDATADIR: /cbio/jclab/home/chayas/anaconda/envs/py35/share/psi4
    Memory:     500.0 MiB
    Threads:    1
    
  ==> Input File <==

--------------------------------------------------------------------------

memory 1000 mb

molecule butane {
  symmetry C1
  0 1 
  H      2.945   1.419   -10.573
  H      3.176   3.015   -9.899
  H      4.559   2.055   -10.366
  C      3.574   2.022   -9.952
  H      4.260   2.020   -7.916
  H      2.646   1.384   -8.122
  C      3.631   1.416   -8.537
  H      3.665   -0.647   -7.940
  H      4.104   -0.384   -9.610
  C      4.203   -0.012   -8.612
  H      6.088   -0.983   -8.270
  H      5.791   0.381   -7.220
  H      6.230   0.644   -8.890
  C      5.691   0.009   -8.218
  units Angstrom
}

dih_string = "14 10 7 4 100"
set optking fixed_dihedral = $dih_string

optimize('MP2/aug-cc-pvtz')
--------------------------------------------------------------------------

  Memory set to 953.674 MiB by Python driver.
gradient() will perform analytic gradient computation.

*** tstart() called on cpu-6-2.local
*** at Wed Jun 14 14:22:04 2017

    SCF Algorithm Type (re)set to DF.

*** tstart() called on cpu-6-2.local
*** at Wed Jun 14 14:22:04 2017

   => Loading Basis Set <=

    Name: AUG-CC-PVTZ
    Role: ORBITAL
    Keyword: BASIS
    atoms 1-3, 5-6, 8-9, 11-13 entry H          line    34 file /cbio/jclab/home/chayas/anaconda/envs/py35/share/psi4/basis/aug-cc-pvtz.gbs 
    atoms 4, 7, 10, 14         entry C          line   221 file /cbio/jclab/home/chayas/anaconda/envs/py35/share/psi4/basis/aug-cc-pvtz.gbs 


         ---------------------------------------------------------
                                   SCF
            by Justin Turney, Rob Parrish, and Andy Simmonett
                              RHF Reference
                        1 Threads,    953 MiB Core
         ---------------------------------------------------------

  ==> Geometry <==

    Molecular point group: c1
    Full point group: C1

    Geometry (in Angstrom), charge = 0, multiplicity = 1:

       Center              X                  Y                   Z               Mass       
    ------------   -----------------  -----------------  -----------------  -----------------
           H         -1.342183340045     0.554757812806    -1.734426059437     1.007825032070
           H         -1.111183340045     2.150757812806    -1.060426059437     1.007825032070
           H          0.271816659955     1.190757812806    -1.527426059437     1.007825032070
           C         -0.713183340045     1.157757812806    -1.113426059437    12.000000000000
           H         -0.027183340045     1.155757812806     0.922573940563     1.007825032070
           H         -1.641183340045     0.519757812806     0.716573940563     1.007825032070
           C         -0.656183340045     0.551757812806     0.301573940563    12.000000000000
           H         -0.622183340045    -1.511242187194     0.898573940563     1.007825032070
           H         -0.183183340045    -1.248242187194    -0.771426059437     1.007825032070
           C         -0.084183340045    -0.876242187194     0.226573940563    12.000000000000
           H          1.800816659955    -1.847242187194     0.568573940563     1.007825032070
           H          1.503816659955    -0.483242187194     1.618573940563     1.007825032070
           H          1.942816659955    -0.220242187194    -0.051426059437     1.007825032070
           C          1.403816659955    -0.855242187194     0.620573940563    12.000000000000

  Running in c1 symmetry.

  Rotational constants: A =      0.51546  B =      0.14295  C =      0.13565 [cm^-1]
  Rotational constants: A =  15453.02882  B =   4285.50946  C =   4066.68682 [MHz]
  Nuclear repulsion =  133.138266693712126

  Charge       = 0
  Multiplicity = 1
  Electrons    = 34
  Nalpha       = 17
  Nbeta        = 17

  ==> Algorithm <==

  SCF Algorithm Type is DF.
  DIIS enabled.
  MOM disabled.
  Fractional occupation disabled.
  Guess Type is SAD.
  Energy threshold   = 1.00e-10
  Density threshold  = 1.00e-10
  Integral threshold = 0.00e+00

  ==> Primary Basis <==

  Basis Set: AUG-CC-PVTZ
    Blend: AUG-CC-PVTZ
    Number of shells: 146
    Number of basis function: 414
    Number of Cartesian functions: 470
    Spherical Harmonics?: true
    Max angular momentum: 3

   => Loading Basis Set <=

    Name: (AUG-CC-PVTZ AUX)
    Role: JKFIT
    Keyword: DF_BASIS_SCF
    atoms 1-3, 5-6, 8-9, 11-13 entry H          line    69 file /cbio/jclab/home/chayas/anaconda/envs/py35/share/psi4/basis/aug-cc-pvtz-jkfit.gbs 
    atoms 4, 7, 10, 14         entry C          line   161 file /cbio/jclab/home/chayas/anaconda/envs/py35/share/psi4/basis/aug-cc-pvtz-jkfit.gbs 

  ==> Pre-Iterations <==

   -------------------------------------------------------
    Irrep   Nso     Nmo     Nalpha   Nbeta   Ndocc  Nsocc
   -------------------------------------------------------
     A        414     414       0       0       0       0
   -------------------------------------------------------
    Total     414     414      17      17      17       0
   -------------------------------------------------------

  ==> Integral Setup <==

  ==> DFJK: Density-Fitted J/K Matrices <==

    J tasked:                  Yes
    K tasked:                  Yes
    wK tasked:                  No
    OpenMP threads:              1
    Integrals threads:           1
    Memory (MB):               715
    Algorithm:                Core
    Integral Cache:           NONE
    Schwarz Cutoff:          1E-12
    Fitting Condition:       1E-12

   => Auxiliary Basis Set <=

  Basis Set: (AUG-CC-PVTZ AUX)
    Blend: AUG-CC-PVTZ-JKFIT
    Number of shells: 260
    Number of basis function: 876
    Number of Cartesian functions: 1074
    Spherical Harmonics?: true
    Max angular momentum: 4

  Minimum eigenvalue in the overlap matrix is 7.4905378294E-06.
  Using Symmetric Orthogonalization.

  SCF Guess: Superposition of Atomic Densities via on-the-fly atomic UHF.

  ==> Iterations <==

                           Total Energy        Delta E     RMS |[F,P]|

   @DF-RHF iter   0:  -159.10849244028307   -1.59108e+02   9.69010e-03 
   @DF-RHF iter   1:  -157.23869776461723    1.86979e+00   8.75306e-04 
   @DF-RHF iter   2:  -157.33770029114439   -9.90025e-02   2.47120e-04 DIIS
   @DF-RHF iter   3:  -157.34685853928536   -9.15825e-03   8.82222e-05 DIIS
   @DF-RHF iter   4:  -157.34794515515219   -1.08662e-03   2.17736e-05 DIIS
   @DF-RHF iter   5:  -157.34802395606698   -7.88009e-05   4.01186e-06 DIIS
   @DF-RHF iter   6:  -157.34802783328661   -3.87722e-06   8.85718e-07 DIIS
   @DF-RHF iter   7:  -157.34802795844422   -1.25158e-07   2.67041e-07 DIIS
   @DF-RHF iter   8:  -157.34802796953392   -1.10897e-08   4.21019e-08 DIIS
   @DF-RHF iter   9:  -157.34802796992517   -3.91253e-10   9.62481e-09 DIIS
   @DF-RHF iter  10:  -157.34802796994398   -1.88152e-11   2.82112e-09 DIIS
   @DF-RHF iter  11:  -157.34802796994563   -1.64846e-12   8.52754e-10 DIIS
   @DF-RHF iter  12:  -157.34802796994498    6.53699e-13   2.17570e-10 DIIS
   @DF-RHF iter  13:  -157.34802796994535   -3.69482e-13   4.25965e-11 DIIS

  ==> Post-Iterations <==

    Orbital Energies (a.u.)
    -----------------------

    Doubly Occupied:                                                      

       1A    -11.205599     2A    -11.205006     3A    -11.199998  
       4A    -11.199870     5A     -1.071944     6A     -0.978736  
       7A     -0.867985     8A     -0.790751     9A     -0.633447  
      10A     -0.615504    11A     -0.582075    12A     -0.547172  
      13A     -0.521532    14A     -0.508260    15A     -0.472810  
      16A     -0.459644    17A     -0.445185  

    Virtual:                                                              

      18A      0.032046    19A      0.037729    20A      0.039907  
      21A      0.040903    22A      0.056917    23A      0.058707  
      24A      0.059711    25A      0.061989    26A      0.075649  
      27A      0.083923    28A      0.104763    29A      0.120430  
      30A      0.122036    31A      0.127238    32A      0.129349  
      33A      0.133466    34A      0.140267    35A      0.143742  
      36A      0.154203    37A      0.154849    38A      0.159688  
      39A      0.164706    40A      0.179744    41A      0.191997  
      42A      0.207813    43A      0.213454    44A      0.239132  
      45A      0.243363    46A      0.250384    47A      0.255374  
      48A      0.272768    49A      0.276744    50A      0.296134  
      51A      0.302150    52A      0.309035    53A      0.313391  
      54A      0.321736    55A      0.330540    56A      0.336290  
      57A      0.347291    58A      0.356830    59A      0.358519  
      60A      0.364711    61A      0.368239    62A      0.370774  
      63A      0.385334    64A      0.385549    65A      0.390361  
      66A      0.396509    67A      0.404358    68A      0.404705  
      69A      0.418349    70A      0.424513    71A      0.425674  
      72A      0.438375    73A      0.443189    74A      0.446269  
      75A      0.452148    76A      0.454807    77A      0.464256  
      78A      0.473793    79A      0.476325    80A      0.480488  
      81A      0.482257    82A      0.494030    83A      0.500864  
      84A      0.505053    85A      0.522931    86A      0.524605  
      87A      0.527188    88A      0.538938    89A      0.544169  
      90A      0.548412    91A      0.567977    92A      0.571352  
      93A      0.575648    94A      0.581802    95A      0.586734  
      96A      0.594443    97A      0.607978    98A      0.614988  
      99A      0.619391   100A      0.625787   101A      0.630229  
     102A      0.643241   103A      0.660055   104A      0.664934  
     105A      0.676910   106A      0.732116   107A      0.749549  
     108A      0.779569   109A      0.793943   110A      0.816032  
     111A      0.828706   112A      0.833263   113A      0.834938  
     114A      0.846470   115A      0.847510   116A      0.859358  
     117A      0.863714   118A      0.870095   119A      0.872978  
     120A      0.881784   121A      0.895076   122A      0.912503  
     123A      0.915787   124A      0.916036   125A      0.917565  
     126A      0.930847   127A      0.931326   128A      0.941219  
     129A      0.945598   130A      0.963341   131A      0.969729  
     132A      0.977251   133A      0.980033   134A      0.996941  
     135A      1.000848   136A      1.020873   137A      1.038521  
     138A      1.039529   139A      1.047032   140A      1.058825  
     141A      1.082963   142A      1.096834   143A      1.097572  
     144A      1.107634   145A      1.124444   146A      1.130532  
     147A      1.134607   148A      1.136321   149A      1.147934  
     150A      1.153520   151A      1.172045   152A      1.179916  
     153A      1.183076   154A      1.196364   155A      1.210295  
     156A      1.229530   157A      1.230585   158A      1.233280  
     159A      1.238176   160A      1.248382   161A      1.275149  
     162A      1.276705   163A      1.289963   164A      1.301928  
     165A      1.309480   166A      1.313475   167A      1.328151  
     168A      1.329439   169A      1.363205   170A      1.376994  
     171A      1.383813   172A      1.411026   173A      1.414854  
     174A      1.437608   175A      1.443603   176A      1.454104  
     177A      1.474893   178A      1.483597   179A      1.487755  
     180A      1.495019   181A      1.509750   182A      1.523311  
     183A      1.542282   184A      1.574230   185A      1.579005  
     186A      1.587248   187A      1.594907   188A      1.613932  
     189A      1.617799   190A      1.626355   191A      1.675542  
     192A      1.676914   193A      1.678232   194A      1.682459  
     195A      1.698744   196A      1.709320   197A      1.717917  
     198A      1.728108   199A      1.735067   200A      1.744913  
     201A      1.755741   202A      1.761657   203A      1.765702  
     204A      1.778849   205A      1.793662   206A      1.805903  
     207A      1.814570   208A      1.825900   209A      1.831738  
     210A      1.839304   211A      1.864481   212A      1.877734  
     213A      1.898598   214A      1.898812   215A      1.907631  
     216A      1.944401   217A      1.959509   218A      1.971267  
     219A      1.985359   220A      2.018175   221A      2.023324  
     222A      2.032626   223A      2.047714   224A      2.058191  
     225A      2.070019   226A      2.080367   227A      2.095846  
     228A      2.101049   229A      2.105968   230A      2.121672  
     231A      2.190887   232A      2.198777   233A      2.200378  
     234A      2.216850   235A      2.241366   236A      2.245307  
     237A      2.264477   238A      2.279416   239A      2.296152  
     240A      2.305292   241A      2.326248   242A      2.341996  
     243A      2.362008   244A      2.362992   245A      2.379736  
     246A      2.412000   247A      2.447599   248A      2.456649  
     249A      2.480868   250A      2.485738   251A      2.504423  
     252A      2.551331   253A      2.557427   254A      2.570761  
     255A      2.583181   256A      2.666359   257A      2.834437  
     258A      2.836031   259A      3.007985   260A      3.033226  
     261A      3.219945   262A      3.250835   263A      3.326015  
     264A      3.337419   265A      3.377935   266A      3.428498  
     267A      3.445469   268A      3.492140   269A      3.492816  
     270A      3.510248   271A      3.538981   272A      3.546412  
     273A      3.569450   274A      3.576214   275A      3.584777  
     276A      3.629514   277A      3.636959   278A      3.671545  
     279A      3.690139   280A      3.694262   281A      3.706480  
     282A      3.707273   283A      3.722184   284A      3.744091  
     285A      3.758456   286A      3.797740   287A      3.800181  
     288A      3.814932   289A      3.817141   290A      3.819219  
     291A      3.839627   292A      3.851559   293A      3.856383  
     294A      3.859539   295A      3.947609   296A      3.963150  
     297A      3.971835   298A      3.987451   299A      3.995487  
     300A      4.002631   301A      4.010970   302A      4.018922  
     303A      4.025359   304A      4.034826   305A      4.065833  
     306A      4.087499   307A      4.096110   308A      4.098856  
     309A      4.127760   310A      4.159689   311A      4.175636  
     312A      4.183582   313A      4.210967   314A      4.237919  
     315A      4.255291   316A      4.269462   317A      4.294954  
     318A      4.301513   319A      4.314439   320A      4.332124  
     321A      4.362630   322A      4.370259   323A      4.409263  
     324A      4.421612   325A      4.431334   326A      4.447612  
     327A      4.497540   328A      4.529055   329A      4.583388  
     330A      4.612573   331A      4.639446   332A      4.672190  
     333A      4.689319   334A      4.690283   335A      4.716684  
     336A      4.733345   337A      4.746724   338A      4.777334  
     339A      4.799886   340A      4.838097   341A      4.840557  
     342A      4.865235   343A      4.877309   344A      4.898808  
     345A      4.903796   346A      4.905453   347A      4.952984  
     348A      4.954950   349A      4.982421   350A      5.030621  
     351A      5.032658   352A      5.034580   353A      5.039987  
     354A      5.100190   355A      5.100792   356A      5.170967  
     357A      5.176575   358A      5.205557   359A      5.233186  
     360A      5.255898   361A      5.267007   362A      5.278489  
     363A      5.303762   364A      5.306438   365A      5.327832  
     366A      5.339665   367A      5.373148   368A      5.394075  
     369A      5.415207   370A      5.455250   371A      5.463630  
     372A      5.495690   373A      5.511398   374A      5.547617  
     375A      5.563713   376A      5.592438   377A      5.619398  
     378A      5.655084   379A      5.675917   380A      5.688157  
     381A      5.725985   382A      5.761292   383A      5.781034  
     384A      5.806410   385A      5.855550   386A      5.869180  
     387A      5.889459   388A      5.919315   389A      5.967293  
     390A      6.068511   391A      6.089863   392A      6.134400  
     393A      6.173224   394A      6.193917   395A      6.233574  
     396A      6.285030   397A      6.301101   398A      6.319401  
     399A      6.323092   400A      6.394289   401A      6.416329  
     402A      6.482683   403A      6.576238   404A      6.595217  
     405A      6.784249   406A      6.787764   407A      6.830229  
     408A      6.865345   409A      6.941892   410A      6.965829  
     411A     18.118490   412A     18.405088   413A     18.777243  
     414A     19.658685  

    Final Occupation by Irrep:
              A 
    DOCC [    17 ]

  Energy converged.

  @DF-RHF Final Energy:  -157.34802796994535

   => Energetics <=

    Nuclear Repulsion Energy =            133.1382666937121257
    One-Electron Energy =                -474.3615572901674682
    Two-Electron Energy =                 183.8752626265099934
    DFT Exchange-Correlation Energy =       0.0000000000000000
    Empirical Dispersion Energy =           0.0000000000000000
    PCM Polarization Energy =               0.0000000000000000
    EFP Energy =                            0.0000000000000000
    Total Energy =                       -157.3480279699453490



Properties will be evaluated at   0.000000,   0.000000,   0.000000 Bohr

Properties computed using the SCF density matrix

  Nuclear Dipole Moment: (a.u.)
     X:     0.5551      Y:     0.2452      Z:    -0.3940

  Electronic Dipole Moment: (a.u.)
     X:    -0.5872      Y:    -0.2600      Z:     0.4170

  Dipole Moment: (a.u.)
     X:    -0.0321      Y:    -0.0148      Z:     0.0231     Total:     0.0422

  Dipole Moment: (Debye)
     X:    -0.0816      Y:    -0.0375      Z:     0.0586     Total:     0.1072


*** tstop() called on cpu-6-2.local at Wed Jun 14 14:23:25 2017
Module time:
	user time   =      80.71 seconds =       1.35 minutes
	system time =       0.54 seconds =       0.01 minutes
	total time  =         81 seconds =       1.35 minutes
Total time:
	user time   =      80.72 seconds =       1.35 minutes
	system time =       0.54 seconds =       0.01 minutes
	total time  =         81 seconds =       1.35 minutes

  //>>>>>>>>>>>>>>>>>>>>>>>>>>>>>>>>>>>//
  //               DFMP2               //
  //<<<<<<<<<<<<<<<<<<<<<<<<<<<<<<<<<<<//

   => Loading Basis Set <=

    Name: (AUG-CC-PVTZ AUX)
    Role: RIFIT
    Keyword: DF_BASIS_MP2
    atoms 1-3, 5-6, 8-9, 11-13 entry H          line    29 file /cbio/jclab/home/chayas/anaconda/envs/py35/share/psi4/basis/aug-cc-pvtz-ri.gbs 
    atoms 4, 7, 10, 14         entry C          line   147 file /cbio/jclab/home/chayas/anaconda/envs/py35/share/psi4/basis/aug-cc-pvtz-ri.gbs 

	 --------------------------------------------------------
	                          DF-MP2                         
	      2nd-Order Density-Fitted Moller-Plesset Theory     
	              RMP2 Wavefunction,   1 Threads             
	                                                         
	        Rob Parrish, Justin Turney, Andy Simmonett,      
	           Ed Hohenstein, and C. David Sherrill          
	 --------------------------------------------------------

   => Auxiliary Basis Set <=

  Basis Set: (AUG-CC-PVTZ AUX)
    Blend: AUG-CC-PVTZ-RI
    Number of shells: 252
    Number of basis function: 884
    Number of Cartesian functions: 1094
    Spherical Harmonics?: true
    Max angular momentum: 4

	 --------------------------------------------------------
	                 NBF =   414, NAUX =   884
	 --------------------------------------------------------
	   CLASS    FOCC     OCC    AOCC    AVIR     VIR    FVIR
	   PAIRS       0      17      17     397     397       0
	 --------------------------------------------------------


         ------------------------------------------------------------
                                     CPHF                           
                                  Rob Parrish                       
         ------------------------------------------------------------

  ==> Geometry <==

    Molecular point group: c1
    Full point group: C1

    Geometry (in Angstrom), charge = 0, multiplicity = 1:

       Center              X                  Y                   Z               Mass       
    ------------   -----------------  -----------------  -----------------  -----------------
           H         -1.342183340045     0.554757812806    -1.734426059437     1.007825032070
           H         -1.111183340045     2.150757812806    -1.060426059437     1.007825032070
           H          0.271816659955     1.190757812806    -1.527426059437     1.007825032070
           C         -0.713183340045     1.157757812806    -1.113426059437    12.000000000000
           H         -0.027183340045     1.155757812806     0.922573940563     1.007825032070
           H         -1.641183340045     0.519757812806     0.716573940563     1.007825032070
           C         -0.656183340045     0.551757812806     0.301573940563    12.000000000000
           H         -0.622183340045    -1.511242187194     0.898573940563     1.007825032070
           H         -0.183183340045    -1.248242187194    -0.771426059437     1.007825032070
           C         -0.084183340045    -0.876242187194     0.226573940563    12.000000000000
           H          1.800816659955    -1.847242187194     0.568573940563     1.007825032070
           H          1.503816659955    -0.483242187194     1.618573940563     1.007825032070
           H          1.942816659955    -0.220242187194    -0.051426059437     1.007825032070
           C          1.403816659955    -0.855242187194     0.620573940563    12.000000000000

  Nuclear repulsion =  133.138266693712126
  Reference energy  = -157.348027969945349

  ==> Basis Set <==

  Basis Set: AUG-CC-PVTZ
    Blend: AUG-CC-PVTZ
    Number of shells: 146
    Number of basis function: 414
    Number of Cartesian functions: 470
    Spherical Harmonics?: true
    Max angular momentum: 3

  ==> CGRSolver (by Rob Parrish) <==

   Number of roots    =         1
   Preconditioning    =    JACOBI
   Convergence cutoff =     1E-06
   Maximum iterations =       100

  ==> CPHFRHamiltonian (by Rob Parrish) <== 

  ==> DFJK: Density-Fitted J/K Matrices <==

    J tasked:                  Yes
    K tasked:                  Yes
    wK tasked:                  No
    OpenMP threads:              1
    Integrals threads:           1
    Memory (MB):               715
    Algorithm:                Core
    Integral Cache:           NONE
    Schwarz Cutoff:          1E-12
    Fitting Condition:       1E-12

   => Auxiliary Basis Set <=

  Basis Set: (AUG-CC-PVTZ AUX)
    Blend: AUG-CC-PVTZ-JKFIT
    Number of shells: 260
    Number of basis function: 876
    Number of Cartesian functions: 1074
    Spherical Harmonics?: true
    Max angular momentum: 4

  ==> CPHF Iterations <==

  => Iterations <=

             Iter  Converged  Remaining    Residual
  CGR           1          0          1   8.371E-02
  CGR           2          0          1   1.346E-02
  CGR           3          0          1   3.302E-03
  CGR           4          0          1   8.283E-04
  CGR           5          0          1   1.678E-04
  CGR           6          0          1   3.262E-05
  CGR           7          0          1   6.196E-06
  CGR           8          0          1   1.291E-06
  CGR           9          1          0   1.893E-07

    CGRSolver converged.

  ==> DFCorrGrad: Density-Fitted Correlated Gradients <==

    OpenMP threads:              1
    Integrals threads:           1
    Memory (MB):               715
    Schwarz Cutoff:          0E+00
    Fitting Condition:       1E-12

   => Auxiliary Basis Set <=

  Basis Set: (AUG-CC-PVTZ AUX)
    Blend: AUG-CC-PVTZ-JKFIT
    Number of shells: 260
    Number of basis function: 876
    Number of Cartesian functions: 1074
    Spherical Harmonics?: true
    Max angular momentum: 4

	-----------------------------------------------------------
	 ==================> DF-MP2 Energies <==================== 
	-----------------------------------------------------------
	 Reference Energy          =    -157.3480279699453490 [Eh]
	 Singles Energy            =      -0.0000000000000000 [Eh]
	 Same-Spin Energy          =      -0.1656815130464174 [Eh]
	 Opposite-Spin Energy      =      -0.6396360291127282 [Eh]
	 Correlation Energy        =      -0.8053175421591456 [Eh]
	 Total Energy              =    -158.1533455121044938 [Eh]
	-----------------------------------------------------------
	 ================> DF-SCS-MP2 Energies <================== 
	-----------------------------------------------------------
	 SCS Same-Spin Scale       =       0.3333333333333333 [-]
	 SCS Opposite-Spin Scale   =       1.2000000000000000 [-]
	 SCS Same-Spin Energy      =      -0.0552271710154725 [Eh]
	 SCS Opposite-Spin Energy  =      -0.7675632349352738 [Eh]
	 SCS Correlation Energy    =      -0.8227904059507463 [Eh]
	 SCS Total Energy          =    -158.1708183758960899 [Eh]
	-----------------------------------------------------------


  -Total Gradient:
     Atom            X                  Y                   Z
    ------   -----------------  -----------------  -----------------
       1        0.006480353532     0.005337596413     0.007929431804
       2        0.003346269549    -0.011200295790     0.003702766966
       3       -0.011080058997    -0.000987851937     0.006992409549
       4        0.001767411619     0.003695110502    -0.027090308269
       5       -0.004606625260    -0.007180501531    -0.008998989813
       6        0.011568696658    -0.002810806213    -0.005769330678
       7       -0.003328207186     0.014339786361     0.029775559729
       8        0.005371456386     0.010109248463    -0.006165553484
       9        0.003115069132     0.006705837645     0.010710960490
      10       -0.017757166645    -0.023824237690    -0.015166063219
      11       -0.008646299391     0.009930325965    -0.000142783818
      12       -0.002696154758    -0.003700644364    -0.010798834052
      13       -0.007869305201    -0.006965305083     0.006403005371
      14        0.024334560566     0.006551737260     0.008617729421


*** tstop() called on cpu-6-2.local at Wed Jun 14 14:27:43 2017
Module time:
	user time   =     336.18 seconds =       5.60 minutes
	system time =       3.40 seconds =       0.06 minutes
	total time  =        339 seconds =       5.65 minutes
Total time:
	user time   =     336.19 seconds =       5.60 minutes
	system time =       3.40 seconds =       0.06 minutes
	total time  =        339 seconds =       5.65 minutes

			-----------------------------------------
			 OPTKING 2.0: for geometry optimizations 
			  - R.A. King,  Bethel University        
			-----------------------------------------

	Internal coordinates to be generated automatically.
	Detected frag 1 with atoms:  1 2 3 4 5 6 7 8 9 10 11 12 13 14
	---Fragment 1 Bond Connectivity---
	 1 : 4
	 2 : 4
	 3 : 4
	 4 : 1 2 3 7
	 5 : 7
	 6 : 7
	 7 : 4 5 6 10
	 8 : 10
	 9 : 10
	 10 : 7 8 9 14
	 11 : 14
	 12 : 14
	 13 : 14
	 14 : 10 11 12 13

	Assuming in current code that numbering for constraints corresponds to unified fragment.
	Fixed dihedral atom list: 
	    14    10     7     4
	---Fragment 1 Geometry and Gradient---
	 H          -2.5363589328        1.0483403363       -3.2775902501
	 H          -2.0998321961        4.0643432444       -2.0039148365
	 H           0.5136590457        2.2502061568       -2.8864169406
	 C          -1.3477211952        2.1878451944       -2.1040703216
	 H          -0.0513690681        2.1840657421        1.7434120850
	 H          -3.1013870465        0.9821999216        1.3541285016
	 C          -1.2400068056        1.0426711579        0.5698921565
	 H          -1.1757561171       -2.8558338543        1.6980586578
	 H          -0.3461663448       -2.3588358813       -1.4577839841
	 C          -0.1590834576       -1.6558577599        0.4281626965
	 H           3.4030503029       -3.4907818349        1.0744490340
	 H           2.8418016414       -0.9131953897        3.0586614735
	 H           3.6713914137       -0.4161974167       -0.0971811684
	 C           2.6528290281       -1.6161735111        1.1727147929
	             0.0064803535        0.0053375964        0.0079294318
	             0.0033462695       -0.0112002958        0.0037027670
	            -0.0110800590       -0.0009878519        0.0069924095
	             0.0017674116        0.0036951105       -0.0270903083
	            -0.0046066253       -0.0071805015       -0.0089989898
	             0.0115686967       -0.0028108062       -0.0057693307
	            -0.0033282072        0.0143397864        0.0297755597
	             0.0053714564        0.0101092485       -0.0061655535
	             0.0031150691        0.0067058376        0.0107109605
	            -0.0177571666       -0.0238242377       -0.0151660632
	            -0.0086462994        0.0099303260       -0.0001427838
	            -0.0026961548       -0.0037006444       -0.0107988341
	            -0.0078693052       -0.0069653051        0.0064030054
	             0.0243345606        0.0065517373        0.0086177294

	Previous optimization step data not found.  Starting new optimization.

	---Fragment 1 Intrafragment Coordinates---
	 - Coordinate -           - BOHR/RAD -       - ANG/DEG -
	 R(1,4)           =         2.021999	       1.069996
	 R(2,4)           =         2.024092	       1.071103
	 R(3,4)           =         2.020072	       1.068976
	 R(4,7)           =         2.910859	       1.540360
	 R(5,7)           =         2.023065	       1.070560
	 R(6,7)           =         2.020747	       1.069333
	 R(7,10)          =         2.910419	       1.540128
	 R(8,10)          =         2.021436	       1.069698
	 R(9,10)          =         2.021379	       1.069668
	 R(10,14)         =         2.909087	       1.539422
	 R(11,14)         =         2.021545	       1.069756
	 R(12,14)         =         2.021555	       1.069761
	 R(13,14)         =         2.022387	       1.070201
	 B(1,4,2)         =         1.910008	     109.435417
	 B(1,4,3)         =         1.911657	     109.529853
	 B(1,4,7)         =         1.910477	     109.462260
	 B(2,4,3)         =         1.910209	     109.446901
	 B(2,4,7)         =         1.910304	     109.452340
	 B(3,4,7)         =         1.911144	     109.500509
	 B(4,7,5)         =         1.909901	     109.429268
	 B(4,7,6)         =         1.911547	     109.523585
	 B(4,7,10)        =         1.911109	     109.498458
	 B(5,7,6)         =         1.910247	     109.449081
	 B(5,7,10)        =         1.910440	     109.460145
	 B(6,7,10)        =         1.910555	     109.466757
	 B(7,10,8)        =         1.910303	     109.452301
	 B(7,10,9)        =         1.910824	     109.482155
	 B(7,10,14)       =         1.911213	     109.504437
	 B(8,10,9)        =         1.910417	     109.458846
	 B(8,10,14)       =         1.910766	     109.478806
	 B(9,10,14)       =         1.910276	     109.450772
	 B(10,14,11)      =         1.910943	     109.488965
	 B(10,14,12)      =         1.911204	     109.503926
	 B(10,14,13)      =         1.911557	     109.524173
	 B(11,14,12)      =         1.910410	     109.458432
	 B(11,14,13)      =         1.910054	     109.438058
	 B(12,14,13)      =         1.909629	     109.413709
	 D(1,4,7,5)       =        -3.141048	    -179.968789
	 D(1,4,7,6)       =        -1.047015	     -59.989554
	 D(1,4,7,10)      =         1.048136	      60.053795
	 D(2,4,7,5)       =        -1.047715	     -60.029660
	 D(2,4,7,6)       =         1.046317	      59.949575
	 D(2,4,7,10)      =         3.141469	     179.992924
	 D(3,4,7,5)       =         1.046271	      59.946921
	 D(3,4,7,6)       =         3.140304	     179.926156
	 D(3,4,7,10)      =        -1.047730	     -60.030495
	 D(4,7,10,8)      =        -2.443405	    -139.996818
	 D(4,7,10,9)      =        -0.349360	     -20.016863
	 D(4,7,10,14)     =         1.745070	      99.985141
	 D(5,7,10,8)      =         1.746109	     100.044671
	 D(5,7,10,9)      =        -2.443031	    -139.975374
	 D(5,7,10,14)     =        -0.348601	     -19.973370
	 D(6,7,10,8)      =        -0.347647	     -19.918707
	 D(6,7,10,9)      =         1.746398	     100.061247
	 D(6,7,10,14)     =        -2.442357	    -139.936749
	 D(7,10,14,11)    =         3.141408	     179.989448
	 D(7,10,14,12)    =         1.046747	      59.974196
	 D(7,10,14,13)    =        -1.047335	     -60.007849
	 D(8,10,14,11)    =         1.046982	      59.987626
	 D(8,10,14,12)    =        -1.047680	     -60.027626
	 D(8,10,14,13)    =         3.141424	     179.990329
	 D(9,10,14,11)    =        -1.047012	     -59.989345
	 D(9,10,14,12)    =         3.141512	     179.995403
	 D(9,10,14,13)    =         1.047431	      60.013359

	Current energy   :      -158.1533455121

	Generating empirical Hessian (Schlegel '84) for each fragment.
	Adding user-defined constraint: Fragment 1; Coordinate 49:
		Value =     1.745070; Fixed value    =     1.745329
		Force =     0.000130; Force constant =     0.500000
	Removing off-diagonal coupling between coordinate 49 and others.
	Taking RFO optimization step.
	Going to follow RFO solution 1.
	Using RFO vector 1.

	Determining step-restricting scale parameter for RS-RFO.
	Maximum step size allowed    0.10000

	 Iter      |step|        alpha        rfo_root  
	------------------------------------------------
	    0     0.21083       1.00000           1
	    1     0.16743       3.56848           1
	    2     0.13188      11.60768           1
	    3     0.11030      23.79519           1
	    4     0.10156      32.08371           1
	    5     0.10004      33.81139           1
	    6     0.10000      33.86308           1
	------------------------------------------------
	Norm of target step-size    0.10000
	Projected energy change by RFO approximation:        -0.0043625983

	Back-transformation to cartesian coordinates...
	Successfully converged to displaced geometry.
	First geometry is closer to target in internal coordinates, so am using that one.
	First geometry has RMS(Delta(q)) = 1.23e-04

	--- Internal Coordinate Step in ANG or DEG, aJ/ANG or AJ/DEG ---
	 ---------------------------------------------------------------------------
	   Coordinate                Previous        Force       Change         New 
	   ----------                --------       ------       ------       ------
	    1 R(1,4)          =      1.069996     0.094083     0.011810     1.081805
	    2 R(2,4)          =      1.071103     0.094282     0.011880     1.082983
	    3 R(3,4)          =      1.068976     0.106677     0.013418     1.082394
	    4 R(4,7)          =      1.540360    -0.053686    -0.007999     1.532361
	    5 R(5,7)          =      1.070560     0.098682     0.012406     1.082966
	    6 R(6,7)          =      1.069333     0.105548     0.013191     1.082524
	    7 R(7,10)         =      1.540128     0.000954     0.000294     1.540422
	    8 R(8,10)         =      1.069698     0.103610     0.012960     1.082657
	    9 R(9,10)         =      1.069668     0.103921     0.013033     1.082701
	   10 R(10,14)        =      1.539422    -0.050050    -0.007435     1.531988
	   11 R(11,14)        =      1.069756     0.102245     0.012835     1.082591
	   12 R(12,14)        =      1.069761     0.095679     0.012001     1.081761
	   13 R(13,14)        =      1.070201     0.099826     0.012598     1.082799
	   14 B(1,4,2)        =    109.435417    -0.000225    -0.532566   108.902851
	   15 B(1,4,3)        =    109.529853    -0.000154    -0.437729   109.092124
	   16 B(1,4,7)        =    109.462260     0.000075     0.166167   109.628427
	   17 B(2,4,3)        =    109.446901    -0.000259    -0.623077   108.823823
	   18 B(2,4,7)        =    109.452340     0.000431     1.103131   110.555471
	   19 B(3,4,7)        =    109.500509     0.000133     0.308870   109.809379
	   20 B(4,7,5)        =    109.429268    -0.000144    -0.258923   109.170345
	   21 B(4,7,6)        =    109.523585    -0.000201    -0.478163   109.045422
	   22 B(4,7,10)       =    109.498458     0.000556     1.262767   110.761225
	   23 B(5,7,6)        =    109.449081    -0.000030    -0.369686   109.079395
	   24 B(5,7,10)       =    109.460145    -0.000170    -0.339711   109.120434
	   25 B(6,7,10)       =    109.466757    -0.000012     0.171834   109.638590
	   26 B(7,10,8)       =    109.452301    -0.000014     0.166702   109.619003
	   27 B(7,10,9)       =    109.482155    -0.000172    -0.347879   109.134277
	   28 B(7,10,14)      =    109.504437     0.000559     1.269063   110.773500
	   29 B(8,10,9)       =    109.458846    -0.000030    -0.372758   109.086088
	   30 B(8,10,14)      =    109.478806    -0.000197    -0.464781   109.014026
	   31 B(9,10,14)      =    109.450772    -0.000146    -0.262123   109.188650
	   32 B(10,14,11)     =    109.488965     0.000430     1.099356   110.588321
	   33 B(10,14,12)     =    109.503926     0.000067     0.148881   109.652807
	   34 B(10,14,13)     =    109.524173     0.000128     0.298161   109.822334
	   35 B(11,14,12)     =    109.458432    -0.000224    -0.532090   108.926342
	   36 B(11,14,13)     =    109.438058    -0.000258    -0.621915   108.816143
	   37 B(12,14,13)     =    109.413709    -0.000144    -0.409579   109.004131
	   38 D(1,4,7,5)      =   -179.968789     0.000019     0.321631  -179.647158
	   39 D(1,4,7,6)      =    -59.989554    -0.000038    -0.571352   -60.560907
	   40 D(1,4,7,10)     =     60.053795     0.000009     0.122871    60.176665
	   41 D(2,4,7,5)      =    -60.029660     0.000026     0.453698   -59.575962
	   42 D(2,4,7,6)      =     59.949575    -0.000031    -0.439285    59.510290
	   43 D(2,4,7,10)     =    179.992924     0.000016     0.254938   180.247862
	   44 D(3,4,7,5)      =     59.946921     0.000033     0.566248    60.513169
	   45 D(3,4,7,6)      =    179.926156    -0.000024    -0.326735   179.599421
	   46 D(3,4,7,10)     =    -60.030495     0.000023     0.367488   -59.663007
	   47 D(4,7,10,8)     =   -139.996818     0.000006     0.117638  -139.879179
	   48 D(4,7,10,9)     =    -20.016863    -0.000028    -0.448435   -20.465298
	   49 D(4,7,10,14)    =     99.985141    -0.000015    -0.205318    99.779822
	   50 D(5,7,10,8)     =    100.044671    -0.000007    -0.129809    99.914862
	   51 D(5,7,10,9)     =   -139.975374    -0.000042    -0.695883  -140.671257
	   52 D(5,7,10,14)    =    -19.973370    -0.000028    -0.452766   -20.426137
	   53 D(6,7,10,8)     =    -19.918707     0.000027     0.424485   -19.494222
	   54 D(6,7,10,9)     =    100.061247    -0.000008    -0.141588    99.919659
	   55 D(6,7,10,14)    =   -139.936749     0.000005     0.101529  -139.835221
	   56 D(7,10,14,11)   =    179.989448     0.000016     0.257796   180.247244
	   57 D(7,10,14,12)   =     59.974196     0.000009     0.136399    60.110595
	   58 D(7,10,14,13)   =    -60.007849     0.000022     0.363837   -59.644012
	   59 D(8,10,14,11)   =     59.987626    -0.000031    -0.441083    59.546543
	   60 D(8,10,14,12)   =    -60.027626    -0.000038    -0.562480   -60.590106
	   61 D(8,10,14,13)   =    179.990329    -0.000025    -0.335042   179.655288
	   62 D(9,10,14,11)   =    -59.989345     0.000026     0.449284   -59.540061
	   63 D(9,10,14,12)   =    179.995403     0.000019     0.327886   180.323290
	   64 D(9,10,14,13)   =     60.013359     0.000032     0.555325    60.568683
	 ---------------------------------------------------------------------------
	Successfully symmetrized geometry.
	 Forces used to impose fixed constraints are not included.
	  Forces zeroed: 49 

  ==> Convergence Check <==

  Measures of convergence in internal coordinates in au.
  Criteria marked as inactive (o), active & met (*), and active & unmet ( ).
  --------------------------------------------------------------------------------------------- ~
   Step     Total Energy     Delta E     MAX Force     RMS Force      MAX Disp      RMS Disp    ~
  --------------------------------------------------------------------------------------------- ~
    Convergence Criteria    1.00e-06 *    3.00e-04 *             o    1.20e-03 *             o  ~
  --------------------------------------------------------------------------------------------- ~
      1    -158.15334551   -1.58e+02      1.29e-02      5.42e-03 o    2.54e-02      1.25e-02 o  ~
  ---------------------------------------------------------------------------------------------

	Writing optimization data to binary file.
	Structure for next step:
	Cartesian Geometry (in Angstrom)
	    H    -1.3560876992   0.5618261110  -1.7458603888
	    H    -1.1304374312   2.1711672857  -1.0666284847
	    H     0.2691874305   1.2126860369  -1.5391165092
	    C    -0.7239970493   1.1683313154  -1.1111040614
	    H    -0.0293854611   1.1676447706   0.9207281534
	    H    -1.6562173148   0.5197971917   0.7090497168
	    C    -0.6585258986   0.5516863788   0.2901783467
	    H    -0.6186723133  -1.5157510633   0.9139574652
	    H    -0.1761789112  -1.2576694055  -0.7738133752
	    C    -0.0751997966  -0.8728759470   0.2331519228
	    H     1.8138204964  -1.8714003861   0.5795270224
	    H     1.5149150566  -0.4915848682   1.6324636395
	    H     1.9633341355  -0.2346141011  -0.0522926333
	    C     1.4058779957  -0.8696339395   0.6247943535
			--------------------------
			 OPTKING Finished Execution 
			--------------------------

    Structure for next step:
    Molecular point group: c1
    Full point group: C1

    Geometry (in Angstrom), charge = 0, multiplicity = 1:

    H           -1.355688087436     0.561925180531    -1.746186832859
    H           -1.130037819368     2.171266355190    -1.066954928756
    H            0.269587042291     1.212785106363    -1.539442953176
    C           -0.723597437483     1.168430384891    -1.111430505388
    H           -0.028985849286     1.167743840095     0.920401709405
    H           -1.655817703016     0.519896261204     0.708723272828
    C           -0.658126286808     0.551785448344     0.289851902679
    H           -0.618272701510    -1.515651993832     0.913631021208
    H           -0.175779299461    -1.257570335975    -0.774139819173
    C           -0.074800184858    -0.872776877549     0.232825478808
    H            1.814220108205    -1.871301316570     0.579200578413
    H            1.515314668372    -0.491485798747     1.632137195514
    H            1.963733747263    -0.234515031629    -0.052619077338
    C            1.406277607473    -0.869534870024     0.624467909528

gradient() will perform analytic gradient computation.

*** tstart() called on cpu-6-2.local
*** at Wed Jun 14 14:27:43 2017

    SCF Algorithm Type (re)set to DF.

*** tstart() called on cpu-6-2.local
*** at Wed Jun 14 14:27:43 2017

   => Loading Basis Set <=

    Name: AUG-CC-PVTZ
    Role: ORBITAL
    Keyword: BASIS
    atoms 1-3, 5-6, 8-9, 11-13 entry H          line    34 file /cbio/jclab/home/chayas/anaconda/envs/py35/share/psi4/basis/aug-cc-pvtz.gbs 
    atoms 4, 7, 10, 14         entry C          line   221 file /cbio/jclab/home/chayas/anaconda/envs/py35/share/psi4/basis/aug-cc-pvtz.gbs 


         ---------------------------------------------------------
                                   SCF
            by Justin Turney, Rob Parrish, and Andy Simmonett
                              RHF Reference
                        1 Threads,    953 MiB Core
         ---------------------------------------------------------

  ==> Geometry <==

    Molecular point group: c1
    Full point group: C1

    Geometry (in Angstrom), charge = 0, multiplicity = 1:

       Center              X                  Y                   Z               Mass       
    ------------   -----------------  -----------------  -----------------  -----------------
           H         -1.355688087436     0.561925180531    -1.746186832859     1.007825032070
           H         -1.130037819368     2.171266355190    -1.066954928756     1.007825032070
           H          0.269587042291     1.212785106363    -1.539442953176     1.007825032070
           C         -0.723597437483     1.168430384891    -1.111430505388    12.000000000000
           H         -0.028985849286     1.167743840095     0.920401709405     1.007825032070
           H         -1.655817703016     0.519896261204     0.708723272828     1.007825032070
           C         -0.658126286808     0.551785448344     0.289851902679    12.000000000000
           H         -0.618272701510    -1.515651993832     0.913631021208     1.007825032070
           H         -0.175779299461    -1.257570335975    -0.774139819173     1.007825032070
           C         -0.074800184858    -0.872776877549     0.232825478808    12.000000000000
           H          1.814220108205    -1.871301316570     0.579200578413     1.007825032070
           H          1.515314668372    -0.491485798747     1.632137195514     1.007825032070
           H          1.963733747263    -0.234515031629    -0.052619077338     1.007825032070
           C          1.406277607473    -0.869534870024     0.624467909528    12.000000000000

  Running in c1 symmetry.

  Rotational constants: A =      0.52029  B =      0.14098  C =      0.13382 [cm^-1]
  Rotational constants: A =  15597.91588  B =   4226.36933  C =   4011.71138 [MHz]
  Nuclear repulsion =  132.528816319186177

  Charge       = 0
  Multiplicity = 1
  Electrons    = 34
  Nalpha       = 17
  Nbeta        = 17

  ==> Algorithm <==

  SCF Algorithm Type is DF.
  DIIS enabled.
  MOM disabled.
  Fractional occupation disabled.
  Guess Type is READ.
  Energy threshold   = 1.00e-10
  Density threshold  = 1.00e-10
  Integral threshold = 0.00e+00

  ==> Primary Basis <==

  Basis Set: AUG-CC-PVTZ
    Blend: AUG-CC-PVTZ
    Number of shells: 146
    Number of basis function: 414
    Number of Cartesian functions: 470
    Spherical Harmonics?: true
    Max angular momentum: 3

   => Loading Basis Set <=

    Name: (AUG-CC-PVTZ AUX)
    Role: JKFIT
    Keyword: DF_BASIS_SCF
    atoms 1-3, 5-6, 8-9, 11-13 entry H          line    69 file /cbio/jclab/home/chayas/anaconda/envs/py35/share/psi4/basis/aug-cc-pvtz-jkfit.gbs 
    atoms 4, 7, 10, 14         entry C          line   161 file /cbio/jclab/home/chayas/anaconda/envs/py35/share/psi4/basis/aug-cc-pvtz-jkfit.gbs 

  Reading orbitals from file 180, no projection.

  ==> Pre-Iterations <==

   -------------------------------------------------------
    Irrep   Nso     Nmo     Nalpha   Nbeta   Ndocc  Nsocc
   -------------------------------------------------------
     A        414     414       0       0       0       0
   -------------------------------------------------------
    Total     414     414      17      17      17       0
   -------------------------------------------------------

  ==> Integral Setup <==

  ==> DFJK: Density-Fitted J/K Matrices <==

    J tasked:                  Yes
    K tasked:                  Yes
    wK tasked:                  No
    OpenMP threads:              1
    Integrals threads:           1
    Memory (MB):               715
    Algorithm:                Core
    Integral Cache:           NONE
    Schwarz Cutoff:          1E-12
    Fitting Condition:       1E-12

   => Auxiliary Basis Set <=

  Basis Set: (AUG-CC-PVTZ AUX)
    Blend: AUG-CC-PVTZ-JKFIT
    Number of shells: 260
    Number of basis function: 876
    Number of Cartesian functions: 1074
    Spherical Harmonics?: true
    Max angular momentum: 4

  Minimum eigenvalue in the overlap matrix is 7.8206317007E-06.
  Using Symmetric Orthogonalization.

  SCF Guess: Orbitals guess was supplied from a previous computation.

  ==> Iterations <==

                           Total Energy        Delta E     RMS |[F,P]|

   @DF-RHF iter   0:  -157.26423656610396   -1.57264e+02   1.26041e-04 
   @DF-RHF iter   1:  -157.35023071415645   -8.59941e-02   5.89221e-05 
   @DF-RHF iter   2:  -157.35056676199829   -3.36048e-04   3.13311e-05 DIIS
   @DF-RHF iter   3:  -157.35064650758065   -7.97456e-05   3.17777e-06 DIIS
   @DF-RHF iter   4:  -157.35064840611574   -1.89854e-06   7.99168e-07 DIIS
   @DF-RHF iter   5:  -157.35064851843399   -1.12318e-07   2.91688e-07 DIIS
   @DF-RHF iter   6:  -157.35064853115566   -1.27217e-08   5.51250e-08 DIIS
   @DF-RHF iter   7:  -157.35064853182189   -6.66233e-10   1.03402e-08 DIIS
   @DF-RHF iter   8:  -157.35064853184244   -2.05489e-11   2.36265e-09 DIIS
   @DF-RHF iter   9:  -157.35064853184380   -1.36424e-12   5.18081e-10 DIIS
   @DF-RHF iter  10:  -157.35064853184377    2.84217e-14   9.98169e-11 DIIS

  ==> Post-Iterations <==

    Orbital Energies (a.u.)
    -----------------------

    Doubly Occupied:                                                      

       1A    -11.209829     2A    -11.209250     3A    -11.204766  
       4A    -11.204731     5A     -1.070755     6A     -0.978078  
       7A     -0.864519     8A     -0.785802     9A     -0.630528  
      10A     -0.613668    11A     -0.579415    12A     -0.545071  
      13A     -0.518509    14A     -0.505853    15A     -0.469112  
      16A     -0.457466    17A     -0.449775  

    Virtual:                                                              

      18A      0.032028    19A      0.037691    20A      0.039887  
      21A      0.040900    22A      0.056820    23A      0.058700  
      24A      0.059628    25A      0.062085    26A      0.076076  
      27A      0.083732    28A      0.104262    29A      0.120662  
      30A      0.122057    31A      0.126976    32A      0.129144  
      33A      0.133589    34A      0.140414    35A      0.143434  
      36A      0.153996    37A      0.154652    38A      0.159696  
      39A      0.164837    40A      0.179864    41A      0.192287  
      42A      0.208450    43A      0.212704    44A      0.237151  
      45A      0.242528    46A      0.248894    47A      0.254905  
      48A      0.270736    49A      0.274803    50A      0.295505  
      51A      0.301096    52A      0.307571    53A      0.312614  
      54A      0.320363    55A      0.330531    56A      0.336523  
      57A      0.346227    58A      0.356859    59A      0.357821  
      60A      0.364587    61A      0.367451    62A      0.370499  
      63A      0.383804    64A      0.384243    65A      0.390117  
      66A      0.395507    67A      0.402375    68A      0.403749  
      69A      0.416674    70A      0.423116    71A      0.424735  
      72A      0.437783    73A      0.441349    74A      0.443673  
      75A      0.449219    76A      0.452266    77A      0.459579  
      78A      0.471841    79A      0.473583    80A      0.478434  
      81A      0.481421    82A      0.493226    83A      0.499804  
      84A      0.503759    85A      0.522009    86A      0.523356  
      87A      0.527193    88A      0.537663    89A      0.543037  
      90A      0.548860    91A      0.567436    92A      0.570023  
      93A      0.574023    94A      0.581006    95A      0.585543  
      96A      0.593697    97A      0.608295    98A      0.612863  
      99A      0.617992   100A      0.624242   101A      0.628361  
     102A      0.641220   103A      0.657197   104A      0.665899  
     105A      0.675257   106A      0.729694   107A      0.749459  
     108A      0.777916   109A      0.792114   110A      0.814243  
     111A      0.828811   112A      0.832461   113A      0.833405  
     114A      0.846091   115A      0.846770   116A      0.858059  
     117A      0.861729   118A      0.868114   119A      0.872018  
     120A      0.877590   121A      0.890562   122A      0.912770  
     123A      0.913626   124A      0.914771   125A      0.915190  
     126A      0.928074   127A      0.929980   128A      0.939392  
     129A      0.943985   130A      0.962163   131A      0.967243  
     132A      0.976117   133A      0.978048   134A      0.995630  
     135A      1.000632   136A      1.020265   137A      1.037281  
     138A      1.037684   139A      1.043694   140A      1.056989  
     141A      1.079412   142A      1.093276   143A      1.093899  
     144A      1.104314   145A      1.120226   146A      1.126698  
     147A      1.131319   148A      1.134305   149A      1.143500  
     150A      1.149571   151A      1.168415   152A      1.177645  
     153A      1.180174   154A      1.191345   155A      1.205103  
     156A      1.225430   157A      1.226506   158A      1.228438  
     159A      1.235303   160A      1.244082   161A      1.271278  
     162A      1.272421   163A      1.282791   164A      1.296244  
     165A      1.300055   166A      1.309007   167A      1.321911  
     168A      1.324000   169A      1.357442   170A      1.375234  
     171A      1.379752   172A      1.404664   173A      1.409251  
     174A      1.433257   175A      1.439285   176A      1.451675  
     177A      1.470928   178A      1.478833   179A      1.487644  
     180A      1.491295   181A      1.504316   182A      1.522080  
     183A      1.540448   184A      1.571257   185A      1.578372  
     186A      1.582327   187A      1.597912   188A      1.608066  
     189A      1.612205   190A      1.621444   191A      1.669034  
     192A      1.673560   193A      1.674160   194A      1.676166  
     195A      1.689772   196A      1.703064   197A      1.713511  
     198A      1.725774   199A      1.728477   200A      1.740292  
     201A      1.752238   202A      1.757778   203A      1.762390  
     204A      1.777294   205A      1.789303   206A      1.805020  
     207A      1.811329   208A      1.825977   209A      1.826517  
     210A      1.834646   211A      1.860348   212A      1.872961  
     213A      1.893851   214A      1.894192   215A      1.900082  
     216A      1.938031   217A      1.953936   218A      1.959809  
     219A      1.979263   220A      2.009423   221A      2.012274  
     222A      2.024300   223A      2.045690   224A      2.050362  
     225A      2.062077   226A      2.070746   227A      2.091130  
     228A      2.097462   229A      2.100905   230A      2.108610  
     231A      2.186295   232A      2.189432   233A      2.193363  
     234A      2.211585   235A      2.233695   236A      2.238027  
     237A      2.256478   238A      2.272005   239A      2.293070  
     240A      2.301833   241A      2.317290   242A      2.333875  
     243A      2.354710   244A      2.356429   245A      2.366150  
     246A      2.400767   247A      2.440084   248A      2.451464  
     249A      2.476150   250A      2.490595   251A      2.494249  
     252A      2.547436   253A      2.548179   254A      2.570842  
     255A      2.576202   256A      2.660097   257A      2.840514  
     258A      2.843990   259A      3.018307   260A      3.043701  
     261A      3.214918   262A      3.264536   263A      3.322811  
     264A      3.335951   265A      3.378859   266A      3.431461  
     267A      3.454802   268A      3.485702   269A      3.492167  
     270A      3.508570   271A      3.541475   272A      3.544393  
     273A      3.568284   274A      3.572027   275A      3.581161  
     276A      3.619488   277A      3.636411   278A      3.668197  
     279A      3.688569   280A      3.689973   281A      3.708593  
     282A      3.708670   283A      3.716616   284A      3.735275  
     285A      3.757997   286A      3.794420   287A      3.806127  
     288A      3.812020   289A      3.812390   290A      3.816221  
     291A      3.836832   292A      3.849525   293A      3.851803  
     294A      3.862724   295A      3.946689   296A      3.950737  
     297A      3.966410   298A      3.973162   299A      3.984950  
     300A      3.996289   301A      3.998500   302A      4.010856  
     303A      4.018223   304A      4.027302   305A      4.052725  
     306A      4.076930   307A      4.082568   308A      4.090908  
     309A      4.122040   310A      4.145140   311A      4.173525  
     312A      4.174301   313A      4.195780   314A      4.229495  
     315A      4.239813   316A      4.257383   317A      4.283765  
     318A      4.285767   319A      4.301840   320A      4.324444  
     321A      4.349091   322A      4.359431   323A      4.392686  
     324A      4.406535   325A      4.409938   326A      4.436279  
     327A      4.486345   328A      4.504800   329A      4.562882  
     330A      4.600411   331A      4.618890   332A      4.654401  
     333A      4.662297   334A      4.672786   335A      4.692752  
     336A      4.712601   337A      4.731355   338A      4.761231  
     339A      4.785211   340A      4.821601   341A      4.825138  
     342A      4.853105   343A      4.861432   344A      4.876581  
     345A      4.887160   346A      4.892741   347A      4.932727  
     348A      4.936902   349A      4.965629   350A      4.999665  
     351A      5.014379   352A      5.026859   353A      5.027981  
     354A      5.075100   355A      5.076561   356A      5.138806  
     357A      5.152343   358A      5.180901   359A      5.209598  
     360A      5.234334   361A      5.243854   362A      5.252879  
     363A      5.279728   364A      5.280907   365A      5.306685  
     366A      5.313273   367A      5.346845   368A      5.370622  
     369A      5.390716   370A      5.416318   371A      5.447313  
     372A      5.472829   373A      5.488757   374A      5.519344  
     375A      5.529861   376A      5.561047   377A      5.582550  
     378A      5.626488   379A      5.641747   380A      5.649603  
     381A      5.694349   382A      5.732463   383A      5.753818  
     384A      5.786726   385A      5.820062   386A      5.827922  
     387A      5.835764   388A      5.893325   389A      5.933614  
     390A      6.040610   391A      6.052558   392A      6.103242  
     393A      6.113568   394A      6.145998   395A      6.197617  
     396A      6.239993   397A      6.259260   398A      6.278101  
     399A      6.283522   400A      6.358017   401A      6.366991  
     402A      6.454133   403A      6.557380   404A      6.581138  
     405A      6.775805   406A      6.778524   407A      6.832795  
     408A      6.856665   409A      6.937937   410A      6.962563  
     411A     17.930706   412A     18.183456   413A     18.626051  
     414A     19.496416  

    Final Occupation by Irrep:
              A 
    DOCC [    17 ]

  Energy converged.

  @DF-RHF Final Energy:  -157.35064853184377

   => Energetics <=

    Nuclear Repulsion Energy =            132.5288163191861770
    One-Electron Energy =                -473.1646749902909050
    Two-Electron Energy =                 183.2852101392609825
    DFT Exchange-Correlation Energy =       0.0000000000000000
    Empirical Dispersion Energy =           0.0000000000000000
    PCM Polarization Energy =               0.0000000000000000
    EFP Energy =                            0.0000000000000000
    Total Energy =                       -157.3506485318437740



Properties will be evaluated at   0.000000,   0.000000,   0.000000 Bohr

Properties computed using the SCF density matrix

  Nuclear Dipole Moment: (a.u.)
     X:     0.5609      Y:     0.2466      Z:    -0.3987

  Electronic Dipole Moment: (a.u.)
     X:    -0.5906      Y:    -0.2598      Z:     0.4200

  Dipole Moment: (a.u.)
     X:    -0.0298      Y:    -0.0132      Z:     0.0213     Total:     0.0389

  Dipole Moment: (Debye)
     X:    -0.0757      Y:    -0.0335      Z:     0.0541     Total:     0.0989


*** tstop() called on cpu-6-2.local at Wed Jun 14 14:28:43 2017
Module time:
	user time   =      59.71 seconds =       1.00 minutes
	system time =       0.45 seconds =       0.01 minutes
	total time  =         60 seconds =       1.00 minutes
Total time:
	user time   =     395.95 seconds =       6.60 minutes
	system time =       3.93 seconds =       0.07 minutes
	total time  =        399 seconds =       6.65 minutes

  //>>>>>>>>>>>>>>>>>>>>>>>>>>>>>>>>>>>//
  //               DFMP2               //
  //<<<<<<<<<<<<<<<<<<<<<<<<<<<<<<<<<<<//

   => Loading Basis Set <=

    Name: (AUG-CC-PVTZ AUX)
    Role: RIFIT
    Keyword: DF_BASIS_MP2
    atoms 1-3, 5-6, 8-9, 11-13 entry H          line    29 file /cbio/jclab/home/chayas/anaconda/envs/py35/share/psi4/basis/aug-cc-pvtz-ri.gbs 
    atoms 4, 7, 10, 14         entry C          line   147 file /cbio/jclab/home/chayas/anaconda/envs/py35/share/psi4/basis/aug-cc-pvtz-ri.gbs 

	 --------------------------------------------------------
	                          DF-MP2                         
	      2nd-Order Density-Fitted Moller-Plesset Theory     
	              RMP2 Wavefunction,   1 Threads             
	                                                         
	        Rob Parrish, Justin Turney, Andy Simmonett,      
	           Ed Hohenstein, and C. David Sherrill          
	 --------------------------------------------------------

   => Auxiliary Basis Set <=

  Basis Set: (AUG-CC-PVTZ AUX)
    Blend: AUG-CC-PVTZ-RI
    Number of shells: 252
    Number of basis function: 884
    Number of Cartesian functions: 1094
    Spherical Harmonics?: true
    Max angular momentum: 4

	 --------------------------------------------------------
	                 NBF =   414, NAUX =   884
	 --------------------------------------------------------
	   CLASS    FOCC     OCC    AOCC    AVIR     VIR    FVIR
	   PAIRS       0      17      17     397     397       0
	 --------------------------------------------------------


         ------------------------------------------------------------
                                     CPHF                           
                                  Rob Parrish                       
         ------------------------------------------------------------

  ==> Geometry <==

    Molecular point group: c1
    Full point group: C1

    Geometry (in Angstrom), charge = 0, multiplicity = 1:

       Center              X                  Y                   Z               Mass       
    ------------   -----------------  -----------------  -----------------  -----------------
           H         -1.355688087436     0.561925180531    -1.746186832859     1.007825032070
           H         -1.130037819368     2.171266355190    -1.066954928756     1.007825032070
           H          0.269587042291     1.212785106363    -1.539442953176     1.007825032070
           C         -0.723597437483     1.168430384891    -1.111430505388    12.000000000000
           H         -0.028985849286     1.167743840095     0.920401709405     1.007825032070
           H         -1.655817703016     0.519896261204     0.708723272828     1.007825032070
           C         -0.658126286808     0.551785448344     0.289851902679    12.000000000000
           H         -0.618272701510    -1.515651993832     0.913631021208     1.007825032070
           H         -0.175779299461    -1.257570335975    -0.774139819173     1.007825032070
           C         -0.074800184858    -0.872776877549     0.232825478808    12.000000000000
           H          1.814220108205    -1.871301316570     0.579200578413     1.007825032070
           H          1.515314668372    -0.491485798747     1.632137195514     1.007825032070
           H          1.963733747263    -0.234515031629    -0.052619077338     1.007825032070
           C          1.406277607473    -0.869534870024     0.624467909528    12.000000000000

  Nuclear repulsion =  132.528816319186177
  Reference energy  = -157.350648531843774

  ==> Basis Set <==

  Basis Set: AUG-CC-PVTZ
    Blend: AUG-CC-PVTZ
    Number of shells: 146
    Number of basis function: 414
    Number of Cartesian functions: 470
    Spherical Harmonics?: true
    Max angular momentum: 3

  ==> CGRSolver (by Rob Parrish) <==

   Number of roots    =         1
   Preconditioning    =    JACOBI
   Convergence cutoff =     1E-06
   Maximum iterations =       100

  ==> CPHFRHamiltonian (by Rob Parrish) <== 

  ==> DFJK: Density-Fitted J/K Matrices <==

    J tasked:                  Yes
    K tasked:                  Yes
    wK tasked:                  No
    OpenMP threads:              1
    Integrals threads:           1
    Memory (MB):               715
    Algorithm:                Core
    Integral Cache:           NONE
    Schwarz Cutoff:          1E-12
    Fitting Condition:       1E-12

   => Auxiliary Basis Set <=

  Basis Set: (AUG-CC-PVTZ AUX)
    Blend: AUG-CC-PVTZ-JKFIT
    Number of shells: 260
    Number of basis function: 876
    Number of Cartesian functions: 1074
    Spherical Harmonics?: true
    Max angular momentum: 4

  ==> CPHF Iterations <==

  => Iterations <=

             Iter  Converged  Remaining    Residual
  CGR           1          0          1   8.500E-02
  CGR           2          0          1   1.361E-02
  CGR           3          0          1   3.343E-03
  CGR           4          0          1   8.352E-04
  CGR           5          0          1   1.703E-04
  CGR           6          0          1   3.259E-05
  CGR           7          0          1   5.971E-06
  CGR           8          0          1   1.222E-06
  CGR           9          1          0   1.786E-07

    CGRSolver converged.

  ==> DFCorrGrad: Density-Fitted Correlated Gradients <==

    OpenMP threads:              1
    Integrals threads:           1
    Memory (MB):               715
    Schwarz Cutoff:          0E+00
    Fitting Condition:       1E-12

   => Auxiliary Basis Set <=

  Basis Set: (AUG-CC-PVTZ AUX)
    Blend: AUG-CC-PVTZ-JKFIT
    Number of shells: 260
    Number of basis function: 876
    Number of Cartesian functions: 1074
    Spherical Harmonics?: true
    Max angular momentum: 4

	-----------------------------------------------------------
	 ==================> DF-MP2 Energies <==================== 
	-----------------------------------------------------------
	 Reference Energy          =    -157.3506485318437740 [Eh]
	 Singles Energy            =      -0.0000000000000004 [Eh]
	 Same-Spin Energy          =      -0.1655412968961470 [Eh]
	 Opposite-Spin Energy      =      -0.6400276277107709 [Eh]
	 Correlation Energy        =      -0.8055689246069183 [Eh]
	 Total Energy              =    -158.1562174564506904 [Eh]
	-----------------------------------------------------------
	 ================> DF-SCS-MP2 Energies <================== 
	-----------------------------------------------------------
	 SCS Same-Spin Scale       =       0.3333333333333333 [-]
	 SCS Opposite-Spin Scale   =       1.2000000000000000 [-]
	 SCS Same-Spin Energy      =      -0.0551804322987157 [Eh]
	 SCS Opposite-Spin Energy  =      -0.7680331532529251 [Eh]
	 SCS Correlation Energy    =      -0.8232135855516411 [Eh]
	 SCS Total Energy          =    -158.1738621173954016 [Eh]
	-----------------------------------------------------------


  -Total Gradient:
     Atom            X                  Y                   Z
    ------   -----------------  -----------------  -----------------
       1        0.001666300380     0.001048300314     0.003304436325
       2        0.000526034400    -0.003169506766     0.002121774148
       3       -0.002760487512    -0.000442820051     0.003321811661
       4       -0.000225547974     0.001587308871    -0.013929834409
       5        0.000385712238    -0.002525504273    -0.004571169213
       6        0.002859810454    -0.002100080853    -0.002891705308
       7       -0.001161107754     0.008536880846     0.016310973749
       8        0.001842015144     0.004135280778    -0.000384997101
       9        0.002615926176     0.003886445469     0.002599548734
      10       -0.009286475616    -0.013166054510    -0.008996443365
      11       -0.003391084301     0.002187903187    -0.000135472284
      12       -0.001877634947    -0.001100755505    -0.003189938886
      13       -0.003350068781    -0.002115034244     0.001064508551
      14        0.012156608099     0.003237636735     0.005376507399


*** tstop() called on cpu-6-2.local at Wed Jun 14 14:32:54 2017
Module time:
	user time   =     307.49 seconds =       5.12 minutes
	system time =       3.13 seconds =       0.05 minutes
	total time  =        311 seconds =       5.18 minutes
Total time:
	user time   =     643.73 seconds =      10.73 minutes
	system time =       6.61 seconds =       0.11 minutes
	total time  =        650 seconds =      10.83 minutes

			-----------------------------------------
			 OPTKING 2.0: for geometry optimizations 
			  - R.A. King,  Bethel University        
			-----------------------------------------

	Previous internal coordinate definitions found.
	---Fragment 1 Geometry and Gradient---
	 H          -2.5618792069        1.0618846984       -3.2998148910
	 H          -2.1354619984        4.1030987729       -2.0162526115
	 H           0.5094456789        2.2918317091       -2.9091255787
	 C          -1.3674009873        2.2080134328       -2.1002992709
	 H          -0.0547753169        2.2067160511        1.7393071630
	 H          -3.1290419847        0.9824615512        1.3392928896
	 C          -1.2436784429        1.0427233815        0.5477407152
	 H          -1.1683660813       -2.8641671811        1.7265124166
	 H          -0.3321747358       -2.3764635278       -1.4629122468
	 C          -0.1413518641       -1.6493092737        0.4399763917
	 H           3.4283791493       -3.5362470004        1.0945304692
	 H           2.8635297284       -0.9287735578        3.0842923108
	 H           3.7109189802       -0.4431691838       -0.0994356455
	 C           2.6574795449       -1.6431827673        1.1800733278
	             0.0016663004        0.0010483003        0.0033044363
	             0.0005260344       -0.0031695068        0.0021217741
	            -0.0027604875       -0.0004428201        0.0033218117
	            -0.0002255480        0.0015873089       -0.0139298344
	             0.0003857122       -0.0025255043       -0.0045711692
	             0.0028598105       -0.0021000809       -0.0028917053
	            -0.0011611078        0.0085368808        0.0163109737
	             0.0018420151        0.0041352808       -0.0003849971
	             0.0026159262        0.0038864455        0.0025995487
	            -0.0092864756       -0.0131660545       -0.0089964434
	            -0.0033910843        0.0021879032       -0.0001354723
	            -0.0018776349       -0.0011007555       -0.0031899389
	            -0.0033500688       -0.0021150342        0.0010645086
	             0.0121566081        0.0032376367        0.0053765074

	---Fragment 1 Intrafragment Coordinates---
	 - Coordinate -           - BOHR/RAD -       - ANG/DEG -
	 R(1,4)           =         2.044316	       1.081805
	 R(2,4)           =         2.046541	       1.082983
	 R(3,4)           =         2.045429	       1.082394
	 R(4,7)           =         2.895742	       1.532361
	 R(5,7)           =         2.046509	       1.082966
	 R(6,7)           =         2.045674	       1.082524
	 R(7,10)          =         2.910975	       1.540422
	 R(8,10)          =         2.045926	       1.082657
	 R(9,10)          =         2.046009	       1.082701
	 R(10,14)         =         2.895037	       1.531988
	 R(11,14)         =         2.045800	       1.082591
	 R(12,14)         =         2.044233	       1.081761
	 R(13,14)         =         2.046194	       1.082799
	 B(1,4,2)         =         1.900713	     108.902851
	 B(1,4,3)         =         1.904017	     109.092124
	 B(1,4,7)         =         1.913377	     109.628427
	 B(2,4,3)         =         1.899334	     108.823823
	 B(2,4,7)         =         1.929557	     110.555471
	 B(3,4,7)         =         1.916535	     109.809379
	 B(4,7,5)         =         1.905382	     109.170345
	 B(4,7,6)         =         1.903202	     109.045422
	 B(4,7,10)        =         1.933148	     110.761225
	 B(5,7,6)         =         1.903795	     109.079395
	 B(5,7,10)        =         1.904511	     109.120434
	 B(6,7,10)        =         1.913554	     109.638590
	 B(7,10,8)        =         1.913213	     109.619003
	 B(7,10,9)        =         1.904752	     109.134277
	 B(7,10,14)       =         1.933362	     110.773500
	 B(8,10,9)        =         1.903911	     109.086088
	 B(8,10,14)       =         1.902654	     109.014026
	 B(9,10,14)       =         1.905701	     109.188650
	 B(10,14,11)      =         1.930130	     110.588321
	 B(10,14,12)      =         1.913803	     109.652807
	 B(10,14,13)      =         1.916761	     109.822334
	 B(11,14,12)      =         1.901123	     108.926342
	 B(11,14,13)      =         1.899200	     108.816143
	 B(12,14,13)      =         1.902481	     109.004131
	 D(1,4,7,5)       =        -3.135434	    -179.647158
	 D(1,4,7,6)       =        -1.056987	     -60.560907
	 D(1,4,7,10)      =         1.050281	      60.176665
	 D(2,4,7,5)       =        -1.039797	     -59.575962
	 D(2,4,7,6)       =         1.038650	      59.510290
	 D(2,4,7,10)      =        -3.137267	    -179.752138
	 D(3,4,7,5)       =         1.056154	      60.513169
	 D(3,4,7,6)       =         3.134601	     179.599421
	 D(3,4,7,10)      =        -1.041316	     -59.663007
	 D(4,7,10,8)      =        -2.441352	    -139.879179
	 D(4,7,10,9)      =        -0.357187	     -20.465298
	 D(4,7,10,14)     =         1.741486	      99.779822
	 D(5,7,10,8)      =         1.743843	      99.914862
	 D(5,7,10,9)      =        -2.455177	    -140.671257
	 D(5,7,10,14)     =        -0.356503	     -20.426137
	 D(6,7,10,8)      =        -0.340238	     -19.494222
	 D(6,7,10,9)      =         1.743927	      99.919659
	 D(6,7,10,14)     =        -2.440585	    -139.835221
	 D(7,10,14,11)    =        -3.137277	    -179.752756
	 D(7,10,14,12)    =         1.049128	      60.110595
	 D(7,10,14,13)    =        -1.040984	     -59.644012
	 D(8,10,14,11)    =         1.039283	      59.546543
	 D(8,10,14,12)    =        -1.057497	     -60.590106
	 D(8,10,14,13)    =         3.135576	     179.655288
	 D(9,10,14,11)    =        -1.039170	     -59.540061
	 D(9,10,14,12)    =        -3.135950	    -179.676710
	 D(9,10,14,13)    =         1.057123	      60.568683

	Current energy   :      -158.1562174565

	Energy change for the previous step:
		Projected    :        -0.0043625983
		Actual       :        -0.0028719443

	Performing BFGS update.
	Previous computed or guess Hessian on step 1.
	Steps to be used in Hessian update: 1
	Adding user-defined constraint: Fragment 1; Coordinate 49:
		Value =     1.741486; Fixed value    =     1.745330
		Force =     0.002018; Force constant =     0.525000
	Removing off-diagonal coupling between coordinate 49 and others.
	Taking RFO optimization step.
	Going to follow RFO solution 1.
	Using RFO vector 1.

	Determining step-restricting scale parameter for RS-RFO.
	Maximum step size allowed    0.10000

	 Iter      |step|        alpha        rfo_root  
	------------------------------------------------
	    0     0.21973       1.00000           1
	    1     0.16224       3.10486           1
	    2     0.13048       7.77083           1
	    3     0.11058      15.74624           1
	    4     0.10172      21.85635           1
	    5     0.10006      23.25505           1
	    6     0.10000      23.30328           1
	------------------------------------------------
	Norm of target step-size    0.10000
	Projected energy change by RFO approximation:        -0.0011870686

	Back-transformation to cartesian coordinates...
	Could not converge backtransformation.
	Using first guess instead.

	--- Internal Coordinate Step in ANG or DEG, aJ/ANG or AJ/DEG ---
	 ---------------------------------------------------------------------------
	   Coordinate                Previous        Force       Change         New 
	   ----------                --------       ------       ------       ------
	    1 R(1,4)          =      1.081805     0.028837     0.005562     1.087368
	    2 R(2,4)          =      1.082983     0.025089     0.004614     1.087597
	    3 R(3,4)          =      1.082394     0.031840     0.006197     1.088592
	    4 R(4,7)          =      1.532361    -0.036081    -0.009533     1.522827
	    5 R(5,7)          =      1.082966     0.031916     0.006300     1.089266
	    6 R(6,7)          =      1.082524     0.030424     0.005670     1.088194
	    7 R(7,10)         =      1.540422    -0.019450    -0.005815     1.534606
	    8 R(8,10)         =      1.082657     0.029843     0.005566     1.088223
	    9 R(9,10)         =      1.082701     0.033309     0.006538     1.089240
	   10 R(10,14)        =      1.531988    -0.034779    -0.009211     1.522777
	   11 R(11,14)        =      1.082591     0.027161     0.004973     1.087564
	   12 R(12,14)        =      1.081761     0.029210     0.005619     1.087381
	   13 R(13,14)        =      1.082799     0.029913     0.005849     1.088648
	   14 B(1,4,2)        =    108.902851    -0.000140    -0.604572   108.298279
	   15 B(1,4,3)        =    109.092124    -0.000148    -0.831455   108.260669
	   16 B(1,4,7)        =    109.628427     0.000100     0.509391   110.137818
	   17 B(2,4,3)        =    108.823823    -0.000163    -0.727081   108.096742
	   18 B(2,4,7)        =    110.555471     0.000206     0.909809   111.465281
	   19 B(3,4,7)        =    109.809379     0.000137     0.675110   110.484490
	   20 B(4,7,5)        =    109.170345    -0.000025     0.168108   109.338453
	   21 B(4,7,6)        =    109.045422    -0.000074    -0.190805   108.854617
	   22 B(4,7,10)       =    110.761225     0.000233     1.047643   111.808867
	   23 B(5,7,6)        =    109.079395    -0.000089    -1.222094   107.857301
	   24 B(5,7,10)       =    109.120434    -0.000063    -0.103479   109.016956
	   25 B(6,7,10)       =    109.638590     0.000013     0.241558   109.880149
	   26 B(7,10,8)       =    109.619003     0.000014     0.253826   109.872829
	   27 B(7,10,9)       =    109.134277    -0.000063    -0.110184   109.024093
	   28 B(7,10,14)      =    110.773500     0.000231     1.034926   111.808426
	   29 B(8,10,9)       =    109.086088    -0.000090    -1.227706   107.858382
	   30 B(8,10,14)      =    109.014026    -0.000071    -0.169647   108.844379
	   31 B(9,10,14)      =    109.188650    -0.000026     0.159716   109.348366
	   32 B(10,14,11)     =    110.588321     0.000204     0.887703   111.476024
	   33 B(10,14,12)     =    109.652807     0.000095     0.488369   110.141176
	   34 B(10,14,13)     =    109.822334     0.000134     0.668176   110.490509
	   35 B(11,14,12)     =    108.926342    -0.000140    -0.613716   108.312627
	   36 B(11,14,13)     =    108.816143    -0.000162    -0.720606   108.095537
	   37 B(12,14,13)     =    109.004131    -0.000140    -0.778030   108.226101
	   38 D(1,4,7,5)      =   -179.647158     0.000015     0.841978  -178.805180
	   39 D(1,4,7,6)      =    -60.560907    -0.000023    -0.646849   -61.207756
	   40 D(1,4,7,10)     =     60.176665     0.000004     0.195283    60.371948
	   41 D(2,4,7,5)      =    -59.575962     0.000020     1.003908   -58.572054
[...]
  CGR           8          0          1   1.107E-06
  CGR           9          1          0   1.486E-07

    CGRSolver converged.

  ==> DFCorrGrad: Density-Fitted Correlated Gradients <==

    OpenMP threads:              1
    Integrals threads:           1
    Memory (MB):               715
    Schwarz Cutoff:          0E+00
    Fitting Condition:       1E-12

   => Auxiliary Basis Set <=

  Basis Set: (AUG-CC-PVTZ AUX)
    Blend: AUG-CC-PVTZ-JKFIT
    Number of shells: 260
    Number of basis function: 876
    Number of Cartesian functions: 1074
    Spherical Harmonics?: true
    Max angular momentum: 4

	-----------------------------------------------------------
	 ==================> DF-MP2 Energies <==================== 
	-----------------------------------------------------------
	 Reference Energy          =    -157.3518190840904083 [Eh]
	 Singles Energy            =      -0.0000000000000000 [Eh]
	 Same-Spin Energy          =      -0.1655538338286685 [Eh]
	 Opposite-Spin Energy      =      -0.6399886582808113 [Eh]
	 Correlation Energy        =      -0.8055424921094798 [Eh]
	 Total Energy              =    -158.1573615761998894 [Eh]
	-----------------------------------------------------------
	 ================> DF-SCS-MP2 Energies <================== 
	-----------------------------------------------------------
	 SCS Same-Spin Scale       =       0.3333333333333333 [-]
	 SCS Opposite-Spin Scale   =       1.2000000000000000 [-]
	 SCS Same-Spin Energy      =      -0.0551846112762228 [Eh]
	 SCS Opposite-Spin Energy  =      -0.7679863899369735 [Eh]
	 SCS Correlation Energy    =      -0.8231710012131963 [Eh]
	 SCS Total Energy          =    -158.1749900853035911 [Eh]
	-----------------------------------------------------------


  -Total Gradient:
     Atom            X                  Y                   Z
    ------   -----------------  -----------------  -----------------
       1        0.000005693600     0.000005834912     0.000009598794
       2        0.000002081838    -0.000009235648     0.000001091129
       3       -0.000014672294     0.000004284972     0.000002674045
       4       -0.002285640786    -0.000962409662    -0.000308159038
       5       -0.000009221231    -0.000002306934    -0.000001925786
       6        0.000003319564     0.000006793811    -0.000004707500
       7        0.002908612524     0.001215004685     0.001312182118
       8        0.000007994690    -0.000001949882    -0.000003291856
       9       -0.000001114219    -0.000002145150     0.000009575996
      10        0.000029164422     0.000070582261    -0.003413746849
      11       -0.000005679477     0.000008210578     0.000001247896
      12       -0.000004162995    -0.000005263977    -0.000010909663
      13       -0.000002456225    -0.000011581435     0.000009412453
      14       -0.000633919414    -0.000315818534     0.002396958259


*** tstop() called on cpu-6-2.local at Wed Jun 14 15:03:52 2017
Module time:
	user time   =     307.40 seconds =       5.12 minutes
	system time =       2.95 seconds =       0.05 minutes
	total time  =        311 seconds =       5.18 minutes
Total time:
	user time   =    2483.43 seconds =      41.39 minutes
	system time =      25.69 seconds =       0.43 minutes
	total time  =       2508 seconds =      41.80 minutes

			-----------------------------------------
			 OPTKING 2.0: for geometry optimizations 
			  - R.A. King,  Bethel University        
			-----------------------------------------

	Previous internal coordinate definitions found.
	---Fragment 1 Geometry and Gradient---
	 H          -2.6446382821        1.1050680157       -3.3091621787
	 H          -2.0950412101        4.1328623740       -2.0407336515
	 H           0.4637726114        2.2376674748       -2.9983513558
	 C          -1.3906172653        2.2030135793       -2.1056063618
	 H          -0.1166771474        2.2293779969        1.7529562439
	 H          -3.1374168207        0.9783742094        1.3170686741
	 C          -1.2440341549        1.0331523221        0.5106016477
	 H          -1.1501423498       -2.8548606504        1.7499189559
	 H          -0.3470294051       -2.4323220552       -1.4212554865
	 C          -0.1146908047       -1.6278090823        0.4613250729
	 H           3.4730330389       -3.5297711226        1.0550166448
	 H           2.8866728192       -0.9991467933        3.1360304574
	 H           3.7492721662       -0.3937898212       -0.0153310377
	 C           2.6584863430       -1.6481205246        1.1986711477
	             0.0000056936        0.0000058349        0.0000095988
	             0.0000020818       -0.0000092356        0.0000010911
	            -0.0000146723        0.0000042850        0.0000026740
	            -0.0022856408       -0.0009624097       -0.0003081590
	            -0.0000092212       -0.0000023069       -0.0000019258
	             0.0000033196        0.0000067938       -0.0000047075
	             0.0029086125        0.0012150047        0.0013121821
	             0.0000079947       -0.0000019499       -0.0000032919
	            -0.0000011142       -0.0000021451        0.0000095760
	             0.0000291644        0.0000705823       -0.0034137468
	            -0.0000056795        0.0000082106        0.0000012479
	            -0.0000041630       -0.0000052640       -0.0000109097
	            -0.0000024562       -0.0000115814        0.0000094125
	            -0.0006339194       -0.0003158185        0.0023969583

	---Fragment 1 Intrafragment Coordinates---
	 - Coordinate -           - BOHR/RAD -       - ANG/DEG -
	 R(1,4)           =         2.055870	       1.087919
	 R(2,4)           =         2.055417	       1.087680
	 R(3,4)           =         2.058387	       1.089251
	 R(4,7)           =         2.869600	       1.518527
	 R(5,7)           =         2.060421	       1.090328
	 R(6,7)           =         2.058710	       1.089423
	 R(7,10)          =         2.891117	       1.529913
	 R(8,10)          =         2.058711	       1.089423
	 R(9,10)          =         2.060420	       1.090327
	 R(10,14)         =         2.869600	       1.518527
	 R(11,14)         =         2.055415	       1.087679
	 R(12,14)         =         2.055869	       1.087919
	 R(13,14)         =         2.058388	       1.089252
	 B(1,4,2)         =         1.886892	     108.110966
	 B(1,4,3)         =         1.880321	     107.734455
	 B(1,4,7)         =         1.925346	     110.314202
	 B(2,4,3)         =         1.882450	     107.856417
	 B(2,4,7)         =         1.951421	     111.808167
	 B(3,4,7)         =         1.935056	     110.870549
	 B(4,7,5)         =         1.918759	     109.936781
	 B(4,7,6)         =         1.897593	     108.724093
	 B(4,7,10)        =         1.960197	     112.311039
	 B(5,7,6)         =         1.857150	     106.406878
	 B(5,7,10)        =         1.908056	     109.323530
	 B(6,7,10)        =         1.919248	     109.964784
	 B(7,10,8)        =         1.919248	     109.964804
	 B(7,10,9)        =         1.908055	     109.323525
	 B(7,10,14)       =         1.960198	     112.311063
	 B(8,10,9)        =         1.857150	     106.406884
	 B(8,10,14)       =         1.897593	     108.724065
	 B(9,10,14)       =         1.918758	     109.936762
	 B(10,14,11)      =         1.951419	     111.808049
	 B(10,14,12)      =         1.925346	     110.314187
	 B(10,14,13)      =         1.935056	     110.870549
	 B(11,14,12)      =         1.886892	     108.110975
	 B(11,14,13)      =         1.882451	     107.856486
	 B(12,14,13)      =         1.880322	     107.734517
	 D(1,4,7,5)       =        -3.056532	    -175.126368
	 D(1,4,7,6)       =        -1.029916	     -59.009822
	 D(1,4,7,10)      =         1.098051	      62.913709
	 D(2,4,7,5)       =        -0.956175	     -54.784769
	 D(2,4,7,6)       =         1.070441	      61.331778
	 D(2,4,7,10)      =        -3.084777	    -176.744691
	 D(3,4,7,5)       =         1.145188	      65.614463
	 D(3,4,7,6)       =        -3.111381	    -178.268991
	 D(3,4,7,10)      =        -0.983414	     -56.345460
	 D(4,7,10,8)      =        -2.429650	    -139.208707
	 D(4,7,10,9)      =        -0.396740	     -22.731502
	 D(4,7,10,14)     =         1.737940	      99.576642
	 D(5,7,10,8)      =         1.718855	      98.483138
	 D(5,7,10,9)      =        -2.531420	    -145.039657
	 D(5,7,10,14)     =        -0.396740	     -22.731513
	 D(6,7,10,8)      =        -0.314055	     -17.994052
	 D(6,7,10,9)      =         1.718855	      98.483153
	 D(6,7,10,14)     =        -2.429650	    -139.208702
	 D(7,10,14,11)    =        -3.084774	    -176.744557
	 D(7,10,14,12)    =         1.098055	      62.913921
	 D(7,10,14,13)    =        -0.983411	     -56.345316
	 D(8,10,14,11)    =         1.070443	      61.331890
	 D(8,10,14,12)    =        -1.029912	     -59.009632
	 D(8,10,14,13)    =        -3.111379	    -178.268869
	 D(9,10,14,11)    =        -0.956172	     -54.784637
	 D(9,10,14,12)    =        -3.056528	    -175.126159
	 D(9,10,14,13)    =         1.145191	      65.614604

	Current energy   :      -158.1573615762

	Energy change for the previous step:
		Projected    :        -0.0000034907
		Actual       :         0.0000002720

	Performing BFGS update.
	Previous computed or guess Hessian on step 1.
	Steps to be used in Hessian update: 7 6
	Adding user-defined constraint: Fragment 1; Coordinate 49:
		Value =     1.737940; Fixed value    =     1.745330
		Force =     0.004988; Force constant =     0.675000
	Removing off-diagonal coupling between coordinate 49 and others.
	Taking RFO optimization step.
	Going to follow RFO solution 1.
	Rejecting RFO root 1 because normalization gives large value.
	Using RFO vector 2.
	Norm of target step-size    0.00381
	Projected energy change by RFO approximation:        -0.0000008048

	Back-transformation to cartesian coordinates...
	Successfully converged to displaced geometry.

	--- Internal Coordinate Step in ANG or DEG, aJ/ANG or AJ/DEG ---
	 ---------------------------------------------------------------------------
	   Coordinate                Previous        Force       Change         New 
	   ----------                --------       ------       ------       ------
	    1 R(1,4)          =      1.087919     0.000101     0.000027     1.087947
	    2 R(2,4)          =      1.087680     0.000077     0.000017     1.087697
	    3 R(3,4)          =      1.089251     0.000118     0.000022     1.089273
	    4 R(4,7)          =      1.518527     0.000050    -0.000024     1.518504
	    5 R(5,7)          =      1.090328     0.000062     0.000020     1.090348
	    6 R(6,7)          =      1.089423     0.000042     0.000001     1.089424
	    7 R(7,10)         =      1.529913    -0.000134    -0.000077     1.529836
	    8 R(8,10)         =      1.089423     0.000041     0.000001     1.089423
	    9 R(9,10)         =      1.090327     0.000064     0.000021     1.090348
	   10 R(10,14)        =      1.518527     0.000053    -0.000022     1.518504
	   11 R(11,14)        =      1.087679     0.000081     0.000018     1.087697
	   12 R(12,14)        =      1.087919     0.000102     0.000028     1.087947
	   13 R(13,14)        =      1.089252     0.000115     0.000020     1.089272
	   14 B(1,4,2)        =    108.110966    -0.000000    -0.001651   108.109316
	   15 B(1,4,3)        =    107.734455     0.000000    -0.001635   107.732819
	   16 B(1,4,7)        =    110.314202     0.000000     0.007039   110.321241
	   17 B(2,4,3)        =    107.856417     0.000000    -0.001626   107.854791
	   18 B(2,4,7)        =    111.808167     0.000000    -0.002336   111.805830
	   19 B(3,4,7)        =    110.870549    -0.000001    -0.000001   110.870548
	   20 B(4,7,5)        =    109.936781     0.000007    -0.003422   109.933358
	   21 B(4,7,6)        =    108.724093    -0.000006     0.011655   108.735748
	   22 B(4,7,10)       =    112.311039    -0.000002    -0.000628   112.310411
	   23 B(5,7,6)        =    106.406878    -0.000000     0.000891   106.407769
	   24 B(5,7,10)       =    109.323530     0.000000    -0.011645   109.311885
	   25 B(6,7,10)       =    109.964784     0.000000     0.003362   109.968146
	   26 B(7,10,8)       =    109.964804     0.000000     0.003299   109.968104
	   27 B(7,10,9)       =    109.323525     0.000000    -0.011628   109.311897
	   28 B(7,10,14)      =    112.311063    -0.000002    -0.000628   112.310435
	   29 B(8,10,9)       =    106.406884    -0.000000     0.000878   106.407762
	   30 B(8,10,14)      =    108.724065    -0.000006     0.011669   108.735734
	   31 B(9,10,14)      =    109.936762     0.000007    -0.003379   109.933384
	   32 B(10,14,11)     =    111.808049     0.000000    -0.002297   111.805752
	   33 B(10,14,12)     =    110.314187     0.000000     0.006994   110.321181
	   34 B(10,14,13)     =    110.870549    -0.000001    -0.000101   110.870448
	   35 B(11,14,12)     =    108.110975    -0.000000    -0.001682   108.109293
	   36 B(11,14,13)     =    107.856486     0.000000    -0.001606   107.854880
	   37 B(12,14,13)     =    107.734517     0.000000    -0.001511   107.733006
	   38 D(1,4,7,5)      =   -175.126368     0.000000    -0.054817  -175.181185
	   39 D(1,4,7,6)      =    -59.009822     0.000000    -0.049003   -59.058825
	   40 D(1,4,7,10)     =     62.913709    -0.000001    -0.037067    62.876642
	   41 D(2,4,7,5)      =    -54.784769     0.000000    -0.053665   -54.838434
	   42 D(2,4,7,6)      =     61.331778     0.000000    -0.047852    61.283926
	   43 D(2,4,7,10)     =   -176.744691    -0.000001    -0.035916  -176.780607
	   44 D(3,4,7,5)      =     65.614463     0.000000    -0.057315    65.557148
	   45 D(3,4,7,6)      =   -178.268991     0.000000    -0.051501  -178.320492
	   46 D(3,4,7,10)     =    -56.345460    -0.000001    -0.039565   -56.385025
	   47 D(4,7,10,8)     =   -139.208707     0.000002     0.018648  -139.190060
	   48 D(4,7,10,9)     =    -22.731502     0.000002     0.014848   -22.716654
	   49 D(4,7,10,14)    =     99.576642     0.000004     0.001899    99.578541
	   50 D(5,7,10,8)     =     98.483138    -0.000000     0.031665    98.514802
	   51 D(5,7,10,9)     =   -145.039657     0.000000     0.027865  -145.011792
	   52 D(5,7,10,14)    =    -22.731513     0.000002     0.014916   -22.716597
	   53 D(6,7,10,8)     =    -17.994052    -0.000000     0.035423   -17.958629
	   54 D(6,7,10,9)     =     98.483153    -0.000000     0.031623    98.514776
	   55 D(6,7,10,14)    =   -139.208702     0.000002     0.018674  -139.190029
	   56 D(7,10,14,11)   =   -176.744557    -0.000001    -0.036006  -176.780563
	   57 D(7,10,14,12)   =     62.913921    -0.000001    -0.037114    62.876807
	   58 D(7,10,14,13)   =    -56.345316    -0.000001    -0.039674   -56.384990
	   59 D(8,10,14,11)   =     61.331890     0.000000    -0.047873    61.284017
	   60 D(8,10,14,12)   =    -59.009632     0.000000    -0.048981   -59.058612
	   61 D(8,10,14,13)   =   -178.268869     0.000000    -0.051540  -178.320410
	   62 D(9,10,14,11)   =    -54.784637     0.000000    -0.053704   -54.838340
	   63 D(9,10,14,12)   =   -175.126159     0.000000    -0.054811  -175.180970
	   64 D(9,10,14,13)   =     65.614604     0.000000    -0.057371    65.557233
	 ---------------------------------------------------------------------------
	Successfully symmetrized geometry.
	 Forces used to impose fixed constraints are not included.
	  Forces zeroed: 49 

  ==> Convergence Check <==

  Measures of convergence in internal coordinates in au.
  Criteria marked as inactive (o), active & met (*), and active & unmet ( ).
  ---------------------------------------------------------------------------------------------
   Step     Total Energy     Delta E     MAX Force     RMS Force      MAX Disp      RMS Disp   
  ---------------------------------------------------------------------------------------------
    Convergence Criteria    1.00e-06 *    3.00e-04 *             o    1.20e-03 *             o
  ---------------------------------------------------------------------------------------------
      8    -158.15736158    2.72e-07 *    1.06e-04 *    3.69e-05 o    1.00e-03 *    4.76e-04 o  ~
  ---------------------------------------------------------------------------------------------


  **** Optimization is complete! (in 8 steps) ****

  ==> Optimization Summary <==

  Measures of convergence in internal coordinates in au.
  --------------------------------------------------------------------------------------------------------------- ~
   Step         Total Energy             Delta E       MAX Force       RMS Force        MAX Disp        RMS Disp  ~
  --------------------------------------------------------------------------------------------------------------- ~
      1    -158.153345512104   -158.153345512104      0.01294820      0.00542139      0.02535663      0.01251424  ~
      2    -158.156217456451     -0.002871944346      0.00437943      0.00206453      0.03084587      0.01251562  ~
      3    -158.157129218939     -0.000911762489      0.00131241      0.00055619      0.03124261      0.01252030  ~
      4    -158.157325613809     -0.000196394870      0.00074091      0.00017017      0.02676095      0.01249992  ~
      5    -158.157363524972     -0.000037911163      0.00026629      0.00006676      0.01237978      0.00606970  ~
      6    -158.157369402449     -0.000005877477      0.00035442      0.00007745      0.00393871      0.00204762  ~
      7    -158.157361848208      0.000007554241      0.00017160      0.00004532      0.00374475      0.00183210  ~
      8    -158.157361576200      0.000000272008      0.00020945      0.00004523      0.00100131      0.00047567  ~
  --------------------------------------------------------------------------------------------------------------- ~

	Writing optimization data to binary file.
	Final energy is   -158.1573615761999
	Final (previous) structure:
	Cartesian Geometry (in Angstrom)
	    H    -1.3994823038   0.5847768078  -1.7511332045
	    H    -1.1086480595   2.1870165745  -1.0799097372
	    H     0.2454178959   1.1841226281  -1.5866592008
	    C    -0.7358829627   1.1657845764  -1.1142388969
	    H    -0.0617428872   1.1797360253   0.9276244919
	    H    -1.6602494754   0.5177333331   0.6969627245
	    C    -0.6583145215   0.5467206619   0.2701987546
	    H    -0.6086291182  -1.5107271899   0.9260172284
	    H    -0.1836400519  -1.2871293955  -0.7520960110
	    C    -0.0606917599  -0.8613994663   0.2441227143
	    H     1.8378499289  -1.8678744296   0.5582907631
	    H     1.5275614646  -0.5287257110   1.6595158435
	    H     1.9840293792  -0.2083845983  -0.0081128357
	    C     1.4068103821  -0.8721478186   0.6343094520
	Saving final (previous) structure.
			--------------------------
			 OPTKING Finished Execution 
			--------------------------

    Final optimized geometry and variables:
    Molecular point group: c1
    Full point group: C1

    Geometry (in Angstrom), charge = 0, multiplicity = 1:

    H           -1.399482303840     0.584776807836    -1.751133204499
    H           -1.108648059462     2.187016574546    -1.079909737181
    H            0.245417895914     1.184122628058    -1.586659200848
    C           -0.735882962674     1.165784576405    -1.114238896937
    H           -0.061742887178     1.179736025267     0.927624491923
    H           -1.660249475371     0.517733333107     0.696962724505
    C           -0.658314521472     0.546720661873     0.270198754630
    H           -0.608629118165    -1.510727189918     0.926017228366
    H           -0.183640051873    -1.287129395548    -0.752096011044
    C           -0.060691759868    -0.861399466290     0.244122714340
    H            1.837849928864    -1.867874429607     0.558290763126
    H            1.527561464598    -0.528725711030     1.659515843486
    H            1.984029379173    -0.208384598336    -0.008112835710
    C            1.406810382054    -0.872147818617     0.634309451969

	Cleaning optimization helper files.

*** Psi4 exiting successfully. Buy a developer a beer!
