
    -----------------------------------------------------------------------
          Psi4: An Open-Source Ab Initio Electronic Structure Package
                               Psi4 1.1 release

                         Git: Rev {HEAD} add49b9 


    R. M. Parrish, L. A. Burns, D. G. A. Smith, A. C. Simmonett,
    A. E. DePrince III, E. G. Hohenstein, U. Bozkaya, A. Yu. Sokolov,
    R. Di Remigio, R. M. Richard, J. F. Gonthier, A. M. James,
    H. R. McAlexander, A. Kumar, M. Saitow, X. Wang, B. P. Pritchard,
    P. Verma, H. F. Schaefer III, K. Patkowski, R. A. King, E. F. Valeev,
    F. A. Evangelista, J. M. Turney, T. D. Crawford, and C. D. Sherrill,
    J. Chem. Theory Comput. in press (2017).
    (doi: 10.1021/acs.jctc.7b00174)

    -----------------------------------------------------------------------


    Psi4 started on: Wednesday, 14 June 2017 02:24PM

    Process ID:   7601
    PSIDATADIR: /cbio/jclab/home/chayas/anaconda/envs/py35/share/psi4
    Memory:     500.0 MiB
    Threads:    1
    
  ==> Input File <==

--------------------------------------------------------------------------

memory 1000 mb

molecule butane {
  symmetry C1
  0 1 
  H      5.266   2.180   -7.372
  H      3.802   3.126   -7.246
  H      3.927   1.594   -6.416
  C      4.200   2.134   -7.298
  H      2.564   1.369   -8.463
  H      3.903   1.956   -9.419
  C      3.631   1.416   -8.537
  H      3.665   -0.647   -7.940
  H      4.104   -0.384   -9.610
  C      4.203   -0.012   -8.612
  H      6.088   -0.983   -8.270
  H      5.791   0.381   -7.220
  H      6.230   0.644   -8.890
  C      5.691   0.009   -8.218
  units Angstrom
}

dih_string = "14 10 7 4 320"
set optking fixed_dihedral = $dih_string

optimize('MP2/aug-cc-pvtz')
--------------------------------------------------------------------------

  Memory set to 953.674 MiB by Python driver.
gradient() will perform analytic gradient computation.

*** tstart() called on gpu-1-8.local
*** at Wed Jun 14 14:24:36 2017

    SCF Algorithm Type (re)set to DF.

*** tstart() called on gpu-1-8.local
*** at Wed Jun 14 14:24:36 2017

   => Loading Basis Set <=

    Name: AUG-CC-PVTZ
    Role: ORBITAL
    Keyword: BASIS
    atoms 1-3, 5-6, 8-9, 11-13 entry H          line    34 file /cbio/jclab/home/chayas/anaconda/envs/py35/share/psi4/basis/aug-cc-pvtz.gbs 
    atoms 4, 7, 10, 14         entry C          line   221 file /cbio/jclab/home/chayas/anaconda/envs/py35/share/psi4/basis/aug-cc-pvtz.gbs 


         ---------------------------------------------------------
                                   SCF
            by Justin Turney, Rob Parrish, and Andy Simmonett
                              RHF Reference
                        1 Threads,    953 MiB Core
         ---------------------------------------------------------

  ==> Geometry <==

    Molecular point group: c1
    Full point group: C1

    Geometry (in Angstrom), charge = 0, multiplicity = 1:

       Center              X                  Y                   Z               Mass       
    ------------   -----------------  -----------------  -----------------  -----------------
           H          0.816919913613     1.286855462935     0.780081371742     1.007825032070
           H         -0.647080086387     2.232855462935     0.906081371742     1.007825032070
           H         -0.522080086387     0.700855462935     1.736081371742     1.007825032070
           C         -0.249080086387     1.240855462935     0.854081371742    12.000000000000
           H         -1.885080086387     0.475855462935    -0.310918628258     1.007825032070
           H         -0.546080086387     1.062855462935    -1.266918628258     1.007825032070
           C         -0.818080086387     0.522855462935    -0.384918628258    12.000000000000
           H         -0.784080086387    -1.540144537065     0.212081371742     1.007825032070
           H         -0.345080086387    -1.277144537065    -1.457918628258     1.007825032070
           C         -0.246080086387    -0.905144537065    -0.459918628258    12.000000000000
           H          1.638919913613    -1.876144537065    -0.117918628258     1.007825032070
           H          1.341919913613    -0.512144537065     0.932081371742     1.007825032070
           H          1.780919913613    -0.249144537065    -0.737918628258     1.007825032070
           C          1.241919913613    -0.884144537065    -0.065918628258    12.000000000000

  Running in c1 symmetry.

  Rotational constants: A =      0.39411  B =      0.19297  C =      0.14780 [cm^-1]
  Rotational constants: A =  11815.03656  B =   5785.20456  C =   4430.93480 [MHz]
  Nuclear repulsion =  135.622982648378553

  Charge       = 0
  Multiplicity = 1
  Electrons    = 34
  Nalpha       = 17
  Nbeta        = 17

  ==> Algorithm <==

  SCF Algorithm Type is DF.
  DIIS enabled.
  MOM disabled.
  Fractional occupation disabled.
  Guess Type is SAD.
  Energy threshold   = 1.00e-10
  Density threshold  = 1.00e-10
  Integral threshold = 0.00e+00

  ==> Primary Basis <==

  Basis Set: AUG-CC-PVTZ
    Blend: AUG-CC-PVTZ
    Number of shells: 146
    Number of basis function: 414
    Number of Cartesian functions: 470
    Spherical Harmonics?: true
    Max angular momentum: 3

   => Loading Basis Set <=

    Name: (AUG-CC-PVTZ AUX)
    Role: JKFIT
    Keyword: DF_BASIS_SCF
    atoms 1-3, 5-6, 8-9, 11-13 entry H          line    69 file /cbio/jclab/home/chayas/anaconda/envs/py35/share/psi4/basis/aug-cc-pvtz-jkfit.gbs 
    atoms 4, 7, 10, 14         entry C          line   161 file /cbio/jclab/home/chayas/anaconda/envs/py35/share/psi4/basis/aug-cc-pvtz-jkfit.gbs 

  ==> Pre-Iterations <==

   -------------------------------------------------------
    Irrep   Nso     Nmo     Nalpha   Nbeta   Ndocc  Nsocc
   -------------------------------------------------------
     A        414     414       0       0       0       0
   -------------------------------------------------------
    Total     414     414      17      17      17       0
   -------------------------------------------------------

  ==> Integral Setup <==

  ==> DFJK: Density-Fitted J/K Matrices <==

    J tasked:                  Yes
    K tasked:                  Yes
    wK tasked:                  No
    OpenMP threads:              1
    Integrals threads:           1
    Memory (MB):               715
    Algorithm:                Core
    Integral Cache:           NONE
    Schwarz Cutoff:          1E-12
    Fitting Condition:       1E-12

   => Auxiliary Basis Set <=

  Basis Set: (AUG-CC-PVTZ AUX)
    Blend: AUG-CC-PVTZ-JKFIT
    Number of shells: 260
    Number of basis function: 876
    Number of Cartesian functions: 1074
    Spherical Harmonics?: true
    Max angular momentum: 4

  Minimum eigenvalue in the overlap matrix is 5.5172467147E-06.
  Using Symmetric Orthogonalization.

  SCF Guess: Superposition of Atomic Densities via on-the-fly atomic UHF.

  ==> Iterations <==

                           Total Energy        Delta E     RMS |[F,P]|

   @DF-RHF iter   0:  -159.05621006834443   -1.59056e+02   9.54946e-03 
   @DF-RHF iter   1:  -157.22859856662194    1.82761e+00   9.33488e-04 
   @DF-RHF iter   2:  -157.32979601720245   -1.01197e-01   3.09781e-04 DIIS
   @DF-RHF iter   3:  -157.34098085697357   -1.11848e-02   1.23209e-04 DIIS
   @DF-RHF iter   4:  -157.34302211206167   -2.04126e-03   2.01836e-05 DIIS
   @DF-RHF iter   5:  -157.34310628391819   -8.41719e-05   4.76240e-06 DIIS
   @DF-RHF iter   6:  -157.34311063654400   -4.35263e-06   1.57664e-06 DIIS
   @DF-RHF iter   7:  -157.34311095696955   -3.20426e-07   2.62369e-07 DIIS
   @DF-RHF iter   8:  -157.34311097306508   -1.60955e-08   5.35105e-08 DIIS
   @DF-RHF iter   9:  -157.34311097366304   -5.97964e-10   1.76542e-08 DIIS
   @DF-RHF iter  10:  -157.34311097371477   -5.17275e-11   4.54994e-09 DIIS
   @DF-RHF iter  11:  -157.34311097372185   -7.07701e-12   1.10290e-09 DIIS
   @DF-RHF iter  12:  -157.34311097372145    3.97904e-13   3.03716e-10 DIIS
   @DF-RHF iter  13:  -157.34311097372020    1.25056e-12   7.92191e-11 DIIS

  ==> Post-Iterations <==

    Orbital Energies (a.u.)
    -----------------------

    Doubly Occupied:                                                      

       1A    -11.206703     2A    -11.206101     3A    -11.197442  
       4A    -11.197365     5A     -1.075501     6A     -0.969956  
       7A     -0.883913     8A     -0.776305     9A     -0.639336  
      10A     -0.628711    11A     -0.573838    12A     -0.539097  
      13A     -0.527246    14A     -0.507083    15A     -0.467072  
      16A     -0.454008    17A     -0.453289  

    Virtual:                                                              

      18A      0.031745    19A      0.038135    20A      0.039547  
      21A      0.040055    22A      0.057912    23A      0.060063  
      24A      0.061215    25A      0.062554    26A      0.063675  
      27A      0.088335    28A      0.120881    29A      0.122276  
      30A      0.122672    31A      0.126341    32A      0.126751  
      33A      0.131403    34A      0.137629    35A      0.140770  
      36A      0.142232    37A      0.147341    38A      0.162151  
      39A      0.165395    40A      0.170542    41A      0.191620  
      42A      0.197449    43A      0.215100    44A      0.238235  
      45A      0.243491    46A      0.274907    47A      0.278641  
      48A      0.287968    49A      0.289986    50A      0.304138  
      51A      0.306850    52A      0.311801    53A      0.316521  
      54A      0.318829    55A      0.330143    56A      0.331213  
      57A      0.334500    58A      0.347148    59A      0.349767  
      60A      0.356389    61A      0.358467    62A      0.363953  
      63A      0.365409    64A      0.377606    65A      0.385394  
      66A      0.396338    67A      0.411200    68A      0.415756  
      69A      0.423445    70A      0.428160    71A      0.444117  
      72A      0.444538    73A      0.452509    74A      0.453588  
      75A      0.462462    76A      0.463926    77A      0.467054  
      78A      0.475946    79A      0.479097    80A      0.482730  
      81A      0.483243    82A      0.493002    83A      0.497929  
      84A      0.506293    85A      0.520041    86A      0.535290  
      87A      0.542289    88A      0.551340    89A      0.554308  
      90A      0.557814    91A      0.564982    92A      0.572910  
      93A      0.572934    94A      0.581377    95A      0.590093  
      96A      0.603976    97A      0.611952    98A      0.621165  
      99A      0.631445   100A      0.636039   101A      0.649519  
     102A      0.668517   103A      0.671852   104A      0.678799  
     105A      0.687225   106A      0.693698   107A      0.754936  
     108A      0.780941   109A      0.793376   110A      0.804580  
     111A      0.818062   112A      0.827804   113A      0.838430  
     114A      0.840207   115A      0.859056   116A      0.865300  
     117A      0.865532   118A      0.873184   119A      0.881181  
     120A      0.894051   121A      0.902740   122A      0.912124  
     123A      0.919067   124A      0.922189   125A      0.933999  
     126A      0.938724   127A      0.950849   128A      0.967040  
     129A      0.971870   130A      0.980732   131A      0.991733  
     132A      0.994618   133A      1.001694   134A      1.002403  
     135A      1.013067   136A      1.034181   137A      1.045976  
     138A      1.052907   139A      1.065635   140A      1.074744  
     141A      1.087305   142A      1.107636   143A      1.108609  
     144A      1.110241   145A      1.117754   146A      1.127446  
     147A      1.139990   148A      1.143908   149A      1.151321  
     150A      1.161058   151A      1.172544   152A      1.195488  
     153A      1.204768   154A      1.205234   155A      1.218271  
     156A      1.224084   157A      1.237380   158A      1.249954  
     159A      1.256546   160A      1.263711   161A      1.271508  
     162A      1.283612   163A      1.297680   164A      1.300808  
     165A      1.325608   166A      1.330081   167A      1.346187  
     168A      1.363206   169A      1.365311   170A      1.383704  
     171A      1.406248   172A      1.432055   173A      1.441718  
     174A      1.447909   175A      1.459009   176A      1.472936  
     177A      1.489945   178A      1.502666   179A      1.511943  
     180A      1.515814   181A      1.536270   182A      1.548932  
     183A      1.557452   184A      1.585293   185A      1.588364  
     186A      1.603076   187A      1.603220   188A      1.623677  
     189A      1.644410   190A      1.660815   191A      1.679338  
     192A      1.680324   193A      1.682895   194A      1.699260  
     195A      1.704442   196A      1.711115   197A      1.730116  
     198A      1.739707   199A      1.748559   200A      1.763839  
     201A      1.772771   202A      1.789593   203A      1.797736  
     204A      1.800603   205A      1.810170   206A      1.826159  
     207A      1.830786   208A      1.845718   209A      1.859962  
     210A      1.866417   211A      1.887181   212A      1.899871  
     213A      1.924756   214A      1.926259   215A      1.942786  
     216A      1.948994   217A      1.965210   218A      1.985835  
     219A      2.012229   220A      2.021528   221A      2.029246  
     222A      2.046040   223A      2.056972   224A      2.069853  
     225A      2.070163   226A      2.081865   227A      2.087115  
     228A      2.134038   229A      2.136833   230A      2.159911  
     231A      2.169570   232A      2.191331   233A      2.201377  
     234A      2.215288   235A      2.256740   236A      2.262109  
     237A      2.286143   238A      2.301660   239A      2.319035  
     240A      2.335984   241A      2.337577   242A      2.366526  
     243A      2.372945   244A      2.412156   245A      2.429155  
     246A      2.446566   247A      2.455856   248A      2.461846  
     249A      2.511382   250A      2.515034   251A      2.529573  
     252A      2.557944   253A      2.578098   254A      2.591845  
     255A      2.599062   256A      2.667715   257A      2.825923  
     258A      2.840711   259A      2.934208   260A      3.051884  
     261A      3.254608   262A      3.315362   263A      3.323123  
     264A      3.378185   265A      3.389240   266A      3.427976  
     267A      3.449615   268A      3.501822   269A      3.508722  
     270A      3.538331   271A      3.557780   272A      3.568431  
     273A      3.576231   274A      3.582797   275A      3.603616  
     276A      3.656666   277A      3.677962   278A      3.687493  
     279A      3.693605   280A      3.711015   281A      3.712839  
     282A      3.720575   283A      3.732366   284A      3.771486  
     285A      3.786321   286A      3.792874   287A      3.801300  
     288A      3.826777   289A      3.831115   290A      3.850983  
     291A      3.884769   292A      3.891422   293A      3.895620  
     294A      3.901600   295A      3.936791   296A      3.961937  
     297A      3.992923   298A      3.993083   299A      4.003188  
     300A      4.025931   301A      4.031025   302A      4.043810  
     303A      4.057124   304A      4.064349   305A      4.074603  
     306A      4.080042   307A      4.104437   308A      4.112939  
     309A      4.160711   310A      4.170660   311A      4.179621  
     312A      4.190643   313A      4.246310   314A      4.278400  
     315A      4.282069   316A      4.304546   317A      4.315211  
     318A      4.321672   319A      4.330184   320A      4.358969  
     321A      4.365771   322A      4.394423   323A      4.416159  
     324A      4.417091   325A      4.464017   326A      4.473837  
     327A      4.495603   328A      4.572718   329A      4.581818  
     330A      4.613211   331A      4.623215   332A      4.672441  
     333A      4.685333   334A      4.709427   335A      4.721136  
     336A      4.754413   337A      4.788150   338A      4.789653  
     339A      4.800330   340A      4.805270   341A      4.846658  
     342A      4.891862   343A      4.912626   344A      4.913283  
     345A      4.949099   346A      4.959106   347A      4.979871  
     348A      4.984662   349A      5.020528   350A      5.021210  
     351A      5.034886   352A      5.070405   353A      5.078266  
     354A      5.125219   355A      5.152225   356A      5.152823  
     357A      5.189016   358A      5.203647   359A      5.207298  
     360A      5.243557   361A      5.259054   362A      5.300270  
     363A      5.351097   364A      5.372435   365A      5.378156  
     366A      5.397474   367A      5.399759   368A      5.421755  
     369A      5.446129   370A      5.456434   371A      5.494926  
     372A      5.512803   373A      5.536403   374A      5.543959  
     375A      5.577953   376A      5.598801   377A      5.632791  
     378A      5.696097   379A      5.700964   380A      5.716143  
     381A      5.745567   382A      5.777911   383A      5.790183  
     384A      5.840268   385A      5.867226   386A      5.887095  
     387A      5.904199   388A      5.978342   389A      5.986102  
     390A      6.028355   391A      6.121958   392A      6.161062  
     393A      6.169099   394A      6.214976   395A      6.233686  
     396A      6.273042   397A      6.283639   398A      6.363573  
     399A      6.364807   400A      6.397012   401A      6.442106  
     402A      6.458188   403A      6.603882   404A      6.627581  
     405A      6.785376   406A      6.804639   407A      6.904982  
     408A      6.932943   409A      6.944777   410A      6.984803  
     411A     18.197504   412A     18.303857   413A     18.945125  
     414A     19.469404  

    Final Occupation by Irrep:
              A 
    DOCC [    17 ]

  Energy converged.

  @DF-RHF Final Energy:  -157.34311097372020

   => Energetics <=

    Nuclear Repulsion Energy =            135.6229826483785530
    One-Electron Energy =                -479.3262582621943011
    Two-Electron Energy =                 186.3601646400955758
    DFT Exchange-Correlation Energy =       0.0000000000000000
    Empirical Dispersion Energy =           0.0000000000000000
    PCM Polarization Energy =               0.0000000000000000
    EFP Energy =                            0.0000000000000000
    Total Energy =                       -157.3431109737202007



Properties will be evaluated at   0.000000,   0.000000,   0.000000 Bohr

Properties computed using the SCF density matrix

  Nuclear Dipole Moment: (a.u.)
     X:     0.7961      Y:     0.2855      Z:     0.6326

  Electronic Dipole Moment: (a.u.)
     X:    -0.8207      Y:    -0.2949      Z:    -0.6524

  Dipole Moment: (a.u.)
     X:    -0.0246      Y:    -0.0094      Z:    -0.0198     Total:     0.0329

  Dipole Moment: (Debye)
     X:    -0.0625      Y:    -0.0238      Z:    -0.0503     Total:     0.0837


*** tstop() called on gpu-1-8.local at Wed Jun 14 14:26:13 2017
Module time:
	user time   =      96.00 seconds =       1.60 minutes
	system time =       0.56 seconds =       0.01 minutes
	total time  =         97 seconds =       1.62 minutes
Total time:
	user time   =      96.01 seconds =       1.60 minutes
	system time =       0.56 seconds =       0.01 minutes
	total time  =         97 seconds =       1.62 minutes

  //>>>>>>>>>>>>>>>>>>>>>>>>>>>>>>>>>>>//
  //               DFMP2               //
  //<<<<<<<<<<<<<<<<<<<<<<<<<<<<<<<<<<<//

   => Loading Basis Set <=

    Name: (AUG-CC-PVTZ AUX)
    Role: RIFIT
    Keyword: DF_BASIS_MP2
    atoms 1-3, 5-6, 8-9, 11-13 entry H          line    29 file /cbio/jclab/home/chayas/anaconda/envs/py35/share/psi4/basis/aug-cc-pvtz-ri.gbs 
    atoms 4, 7, 10, 14         entry C          line   147 file /cbio/jclab/home/chayas/anaconda/envs/py35/share/psi4/basis/aug-cc-pvtz-ri.gbs 

	 --------------------------------------------------------
	                          DF-MP2                         
	      2nd-Order Density-Fitted Moller-Plesset Theory     
	              RMP2 Wavefunction,   1 Threads             
	                                                         
	        Rob Parrish, Justin Turney, Andy Simmonett,      
	           Ed Hohenstein, and C. David Sherrill          
	 --------------------------------------------------------

   => Auxiliary Basis Set <=

  Basis Set: (AUG-CC-PVTZ AUX)
    Blend: AUG-CC-PVTZ-RI
    Number of shells: 252
    Number of basis function: 884
    Number of Cartesian functions: 1094
    Spherical Harmonics?: true
    Max angular momentum: 4

	 --------------------------------------------------------
	                 NBF =   414, NAUX =   884
	 --------------------------------------------------------
	   CLASS    FOCC     OCC    AOCC    AVIR     VIR    FVIR
	   PAIRS       0      17      17     397     397       0
	 --------------------------------------------------------


         ------------------------------------------------------------
                                     CPHF                           
                                  Rob Parrish                       
         ------------------------------------------------------------

  ==> Geometry <==

    Molecular point group: c1
    Full point group: C1

    Geometry (in Angstrom), charge = 0, multiplicity = 1:

       Center              X                  Y                   Z               Mass       
    ------------   -----------------  -----------------  -----------------  -----------------
           H          0.816919913613     1.286855462935     0.780081371742     1.007825032070
           H         -0.647080086387     2.232855462935     0.906081371742     1.007825032070
           H         -0.522080086387     0.700855462935     1.736081371742     1.007825032070
           C         -0.249080086387     1.240855462935     0.854081371742    12.000000000000
           H         -1.885080086387     0.475855462935    -0.310918628258     1.007825032070
           H         -0.546080086387     1.062855462935    -1.266918628258     1.007825032070
           C         -0.818080086387     0.522855462935    -0.384918628258    12.000000000000
           H         -0.784080086387    -1.540144537065     0.212081371742     1.007825032070
           H         -0.345080086387    -1.277144537065    -1.457918628258     1.007825032070
           C         -0.246080086387    -0.905144537065    -0.459918628258    12.000000000000
           H          1.638919913613    -1.876144537065    -0.117918628258     1.007825032070
           H          1.341919913613    -0.512144537065     0.932081371742     1.007825032070
           H          1.780919913613    -0.249144537065    -0.737918628258     1.007825032070
           C          1.241919913613    -0.884144537065    -0.065918628258    12.000000000000

  Nuclear repulsion =  135.622982648378553
  Reference energy  = -157.343110973720201

  ==> Basis Set <==

  Basis Set: AUG-CC-PVTZ
    Blend: AUG-CC-PVTZ
    Number of shells: 146
    Number of basis function: 414
    Number of Cartesian functions: 470
    Spherical Harmonics?: true
    Max angular momentum: 3

  ==> CGRSolver (by Rob Parrish) <==

   Number of roots    =         1
   Preconditioning    =    JACOBI
   Convergence cutoff =     1E-06
   Maximum iterations =       100

  ==> CPHFRHamiltonian (by Rob Parrish) <== 

  ==> DFJK: Density-Fitted J/K Matrices <==

    J tasked:                  Yes
    K tasked:                  Yes
    wK tasked:                  No
    OpenMP threads:              1
    Integrals threads:           1
    Memory (MB):               715
    Algorithm:                Core
    Integral Cache:           NONE
    Schwarz Cutoff:          1E-12
    Fitting Condition:       1E-12

   => Auxiliary Basis Set <=

  Basis Set: (AUG-CC-PVTZ AUX)
    Blend: AUG-CC-PVTZ-JKFIT
    Number of shells: 260
    Number of basis function: 876
    Number of Cartesian functions: 1074
    Spherical Harmonics?: true
    Max angular momentum: 4

  ==> CPHF Iterations <==

  => Iterations <=

             Iter  Converged  Remaining    Residual
  CGR           1          0          1   8.638E-02
  CGR           2          0          1   1.367E-02
  CGR           3          0          1   3.222E-03
  CGR           4          0          1   7.822E-04
  CGR           5          0          1   1.789E-04
  CGR           6          0          1   3.131E-05
  CGR           7          0          1   5.701E-06
  CGR           8          0          1   1.279E-06
  CGR           9          1          0   1.809E-07

    CGRSolver converged.

  ==> DFCorrGrad: Density-Fitted Correlated Gradients <==

    OpenMP threads:              1
    Integrals threads:           1
    Memory (MB):               715
    Schwarz Cutoff:          0E+00
    Fitting Condition:       1E-12

   => Auxiliary Basis Set <=

  Basis Set: (AUG-CC-PVTZ AUX)
    Blend: AUG-CC-PVTZ-JKFIT
    Number of shells: 260
    Number of basis function: 876
    Number of Cartesian functions: 1074
    Spherical Harmonics?: true
    Max angular momentum: 4

	-----------------------------------------------------------
	 ==================> DF-MP2 Energies <==================== 
	-----------------------------------------------------------
	 Reference Energy          =    -157.3431109737202007 [Eh]
	 Singles Energy            =      -0.0000000000000001 [Eh]
	 Same-Spin Energy          =      -0.1669662565254815 [Eh]
	 Opposite-Spin Energy      =      -0.6410222302510539 [Eh]
	 Correlation Energy        =      -0.8079884867765356 [Eh]
	 Total Energy              =    -158.1510994604967379 [Eh]
	-----------------------------------------------------------
	 ================> DF-SCS-MP2 Energies <================== 
	-----------------------------------------------------------
	 SCS Same-Spin Scale       =       0.3333333333333333 [-]
	 SCS Opposite-Spin Scale   =       1.2000000000000000 [-]
	 SCS Same-Spin Energy      =      -0.0556554188418272 [Eh]
	 SCS Opposite-Spin Energy  =      -0.7692266763012646 [Eh]
	 SCS Correlation Energy    =      -0.8248820951430919 [Eh]
	 SCS Total Energy          =    -158.1679930688632965 [Eh]
	-----------------------------------------------------------


  -Total Gradient:
     Atom            X                  Y                   Z
    ------   -----------------  -----------------  -----------------
       1       -0.007353658564    -0.006402418489    -0.002211851556
       2        0.003573288822    -0.011366206048    -0.003507963216
       3        0.001832455045     0.004957176236    -0.011940311402
       4        0.014352587868     0.003125548628     0.023044009809
       5        0.012286150647    -0.001763975500     0.002194913338
       6       -0.002012675711    -0.007171417930     0.011057995053
       7       -0.017194952721     0.012140352714    -0.022462522069
       8        0.006705230467     0.008762473214    -0.007077929069
       9        0.003076100949     0.007428113186     0.010503360108
      10       -0.017152568843    -0.024873024523    -0.006031936518
      11       -0.007464920940     0.010293076835     0.000596034031
      12       -0.005497982110     0.001750809998    -0.007953915631
      13       -0.008284705383    -0.007090745691     0.006425717170
      14        0.023135650476     0.010210237371     0.007364399954


*** tstop() called on gpu-1-8.local at Wed Jun 14 14:32:36 2017
Module time:
	user time   =     475.86 seconds =       7.93 minutes
	system time =       3.33 seconds =       0.06 minutes
	total time  =        480 seconds =       8.00 minutes
Total time:
	user time   =     475.87 seconds =       7.93 minutes
	system time =       3.33 seconds =       0.06 minutes
	total time  =        480 seconds =       8.00 minutes

			-----------------------------------------
			 OPTKING 2.0: for geometry optimizations 
			  - R.A. King,  Bethel University        
			-----------------------------------------

	Internal coordinates to be generated automatically.
	Detected frag 1 with atoms:  1 2 3 4 5 6 7 8 9 10 11 12 13 14
	---Fragment 1 Bond Connectivity---
	 1 : 4
	 2 : 4
	 3 : 4
	 4 : 1 2 3 7
	 5 : 7
	 6 : 7
	 7 : 4 5 6 10
	 8 : 10
	 9 : 10
	 10 : 7 8 9 14
	 11 : 14
	 12 : 14
	 13 : 14
	 14 : 10 11 12 13

	Assuming in current code that numbering for constraints corresponds to unified fragment.
	Fixed dihedral atom list: 
	    14    10     7     4
	---Fragment 1 Geometry and Gradient---
	 H           1.5437549092        2.4318043976        1.4741401540
	 H          -1.2228041493        4.2194853193        1.7122456467
	 H          -0.9865883827        1.3244248837        3.2807183370
	 C          -0.4706931484        2.3448769954        1.6139798878
	 H          -3.5622851018        0.8992365038       -0.5875510570
	 H          -1.0319418099        2.0085057438       -2.3941292401
	 C          -1.5459473180        0.9880536320       -0.7273907909
	 H          -1.4816966295       -2.9104513801        0.4007757105
	 H          -0.6521068572       -2.4134534072       -2.7550669314
	 C          -0.4650239700       -1.7104752857       -0.8691202508
	 H           3.0971097905       -3.5453993608       -0.2228339134
	 H           2.5358611290       -0.9678129155        1.7613785262
	 H           3.3654509013       -0.4708149426       -1.3944641158
	 C           2.3468885157       -1.6707910369       -0.1245681545
	            -0.0073536586       -0.0064024185       -0.0022118516
	             0.0035732888       -0.0113662060       -0.0035079632
	             0.0018324550        0.0049571762       -0.0119403114
	             0.0143525879        0.0031255486        0.0230440098
	             0.0122861506       -0.0017639755        0.0021949133
	            -0.0020126757       -0.0071714179        0.0110579951
	            -0.0171949527        0.0121403527       -0.0224625221
	             0.0067052305        0.0087624732       -0.0070779291
	             0.0030761009        0.0074281132        0.0105033601
	            -0.0171525688       -0.0248730245       -0.0060319365
	            -0.0074649209        0.0102930768        0.0005960340
	            -0.0054979821        0.0017508100       -0.0079539156
	            -0.0082847054       -0.0070907457        0.0064257172
	             0.0231356505        0.0102102374        0.0073644000

	Previous optimization step data not found.  Starting new optimization.

	---Fragment 1 Intrafragment Coordinates---
	 - Coordinate -           - BOHR/RAD -       - ANG/DEG -
	 R(1,4)           =         2.021166	       1.069555
	 R(2,4)           =         2.022247	       1.070127
	 R(3,4)           =         2.021259	       1.069604
	 R(4,7)           =         2.911899	       1.540911
	 R(5,7)           =         2.023132	       1.070595
	 R(6,7)           =         2.020777	       1.069349
	 R(7,10)          =         2.910419	       1.540128
	 R(8,10)          =         2.021436	       1.069698
	 R(9,10)          =         2.021379	       1.069668
	 R(10,14)         =         2.909087	       1.539422
	 R(11,14)         =         2.021545	       1.069756
	 R(12,14)         =         2.021555	       1.069761
	 R(13,14)         =         2.022387	       1.070201
	 B(1,4,2)         =         1.911527	     109.522416
	 B(1,4,3)         =         1.910441	     109.460198
	 B(1,4,7)         =         1.909689	     109.417137
	 B(2,4,3)         =         1.910285	     109.451288
	 B(2,4,7)         =         1.910997	     109.492052
	 B(3,4,7)         =         1.910860	     109.484231
	 B(4,7,5)         =         1.910174	     109.444913
	 B(4,7,6)         =         1.911311	     109.510050
	 B(4,7,10)        =         1.911391	     109.514621
	 B(5,7,6)         =         1.909946	     109.431869
	 B(5,7,10)        =         1.910080	     109.439537
	 B(6,7,10)        =         1.910896	     109.486271
	 B(7,10,8)        =         1.910303	     109.452301
	 B(7,10,9)        =         1.910824	     109.482155
	 B(7,10,14)       =         1.911213	     109.504437
	 B(8,10,9)        =         1.910417	     109.458846
	 B(8,10,14)       =         1.910766	     109.478806
	 B(9,10,14)       =         1.910276	     109.450772
	 B(10,14,11)      =         1.910943	     109.488965
	 B(10,14,12)      =         1.911204	     109.503926
	 B(10,14,13)      =         1.911557	     109.524173
	 B(11,14,12)      =         1.910410	     109.458432
	 B(11,14,13)      =         1.910054	     109.438058
	 B(12,14,13)      =         1.909629	     109.413709
	 D(1,4,7,5)       =         3.140794	     179.954257
	 D(1,4,7,6)       =        -1.048703	     -60.086282
	 D(1,4,7,10)      =         1.046894	      59.982609
	 D(2,4,7,5)       =        -1.047257	     -60.003422
	 D(2,4,7,6)       =         1.046430	      59.956039
	 D(2,4,7,10)      =        -3.141158	    -179.975070
	 D(3,4,7,5)       =         1.047074	      59.992894
	 D(3,4,7,6)       =         3.140761	     179.952355
	 D(3,4,7,10)      =        -1.046827	     -59.978754
	 D(4,7,10,8)      =         1.396584	      80.018351
	 D(4,7,10,9)      =        -2.792556	    -160.001694
	 D(4,7,10,14)     =        -0.698126	     -39.999690
	 D(5,7,10,8)      =        -0.697374	     -39.956587
	 D(5,7,10,9)      =         1.396671	      80.023368
	 D(5,7,10,14)     =        -2.792084	    -159.974629
	 D(6,7,10,8)      =        -2.790750	    -159.898219
	 D(6,7,10,9)      =        -0.696705	     -39.918265
	 D(6,7,10,14)     =         1.397725	      80.083739
	 D(7,10,14,11)    =         3.141408	     179.989448
	 D(7,10,14,12)    =         1.046747	      59.974196
	 D(7,10,14,13)    =        -1.047335	     -60.007849
	 D(8,10,14,11)    =         1.046982	      59.987626
	 D(8,10,14,12)    =        -1.047680	     -60.027626
	 D(8,10,14,13)    =         3.141424	     179.990329
	 D(9,10,14,11)    =        -1.047012	     -59.989345
	 D(9,10,14,12)    =         3.141512	     179.995403
	 D(9,10,14,13)    =         1.047431	      60.013359

	Current energy   :      -158.1510994605

	Generating empirical Hessian (Schlegel '84) for each fragment.
	Adding user-defined constraint: Fragment 1; Coordinate 49:
		Value =    -0.698126; Fixed value    =    -0.698132
		Force =    -0.000003; Force constant =     0.500000
	Removing off-diagonal coupling between coordinate 49 and others.
	Taking RFO optimization step.
	Going to follow RFO solution 1.
	Using RFO vector 1.

	Determining step-restricting scale parameter for RS-RFO.
	Maximum step size allowed    0.10000

	 Iter      |step|        alpha        rfo_root  
	------------------------------------------------
	    0     0.38680       1.00000           1
	    1     0.27445       3.41260           1
	    2     0.19251      11.30500           1
	    3     0.14037      28.11589           1
	    4     0.11259      49.98595           1
	    5     0.10190      64.10029           1
	    6     0.10006      67.04103           1
	    7     0.10000      67.13161           1
	------------------------------------------------
	Norm of target step-size    0.10000
	Projected energy change by RFO approximation:        -0.0071998935

	Back-transformation to cartesian coordinates...
	Could not converge backtransformation.
	Using first guess instead.

	--- Internal Coordinate Step in ANG or DEG, aJ/ANG or AJ/DEG ---
	 ---------------------------------------------------------------------------
	   Coordinate                Previous        Force       Change         New 
	   ----------                --------       ------       ------       ------
	    1 R(1,4)          =      1.069555     0.061391     0.005931     1.075486
	    2 R(2,4)          =      1.070127     0.099160     0.008622     1.078749
	    3 R(3,4)          =      1.069604     0.105591     0.008222     1.077826
	    4 R(4,7)          =      1.540911    -0.036220    -0.001543     1.539368
	    5 R(5,7)          =      1.070595     0.098994     0.007859     1.078455
	    6 R(6,7)          =      1.069349     0.109196     0.008326     1.077675
	    7 R(7,10)         =      1.540128     0.067820     0.005948     1.546076
	    8 R(8,10)         =      1.069698     0.107272     0.008184     1.077881
	    9 R(9,10)         =      1.069668     0.104365     0.008261     1.077929
	   10 R(10,14)        =      1.539422    -0.030303    -0.001026     1.538396
	   11 R(11,14)        =      1.069756     0.101701     0.008814     1.078569
	   12 R(12,14)        =      1.069761     0.060353     0.005851     1.075612
	   13 R(13,14)        =      1.070201     0.102281     0.007976     1.078177
	   14 B(1,4,2)        =    109.522416    -0.000385    -0.451930   109.070486
	   15 B(1,4,3)        =    109.460198    -0.000223    -0.314319   109.145879
	   16 B(1,4,7)        =    109.417137     0.000511     0.641097   110.058234
	   17 B(2,4,3)        =    109.451288    -0.000217    -0.244331   109.206956
	   18 B(2,4,7)        =    109.492052     0.000153     0.196393   109.688445
	   19 B(3,4,7)        =    109.484231     0.000162     0.167129   109.651360
	   20 B(4,7,5)        =    109.444913    -0.000787    -0.808367   108.636546
	   21 B(4,7,6)        =    109.510050    -0.000677    -0.767108   108.742942
	   22 B(4,7,10)       =    109.514621     0.002568     2.840567   112.355188
	   23 B(5,7,6)        =    109.431869     0.000298     0.188942   109.620811
	   24 B(5,7,10)       =    109.439537    -0.000763    -0.820217   108.619321
	   25 B(6,7,10)       =    109.486271    -0.000641    -0.647004   108.839268
	   26 B(7,10,8)       =    109.452301    -0.000641    -0.646471   108.805830
	   27 B(7,10,9)       =    109.482155    -0.000770    -0.829045   108.653110
	   28 B(7,10,14)      =    109.504437     0.002576     2.848427   112.352864
	   29 B(8,10,9)       =    109.458846     0.000297     0.187082   109.645928
	   30 B(8,10,14)      =    109.478806    -0.000675    -0.763852   108.714954
	   31 B(9,10,14)      =    109.450772    -0.000787    -0.808246   108.642527
	   32 B(10,14,11)     =    109.488965     0.000158     0.202499   109.691464
	   33 B(10,14,12)     =    109.503926     0.000498     0.625762   110.129688
	   34 B(10,14,13)     =    109.524173     0.000159     0.164311   109.688483
	   35 B(11,14,12)     =    109.458432    -0.000379    -0.445504   109.012927
	   36 B(11,14,13)     =    109.438058    -0.000219    -0.246469   109.191590
	   37 B(12,14,13)     =    109.413709    -0.000217    -0.307882   109.105828
	   38 D(1,4,7,5)      =    179.954257     0.000087     0.495667   180.449925
	   39 D(1,4,7,6)      =    -60.086282    -0.000035    -0.211626   -60.297908
	   40 D(1,4,7,10)     =     59.982609     0.000052     0.267101    60.249710
	   41 D(2,4,7,5)      =    -60.003422     0.000072     0.458338   -59.545084
	   42 D(2,4,7,6)      =     59.956039    -0.000050    -0.248955    59.707084
	   43 D(2,4,7,10)     =   -179.975070     0.000037     0.229772  -179.745298
	   44 D(3,4,7,5)      =     59.992894     0.000055     0.382312    60.375206
	   45 D(3,4,7,6)      =    179.952355    -0.000067    -0.324982   179.627373
	   46 D(3,4,7,10)     =    -59.978754     0.000020     0.153745   -59.825009
	   47 D(4,7,10,8)     =     80.018351     0.000032     0.238099    80.256450
	   48 D(4,7,10,9)     =   -160.001694    -0.000083    -0.413540  -160.415234
	   49 D(4,7,10,14)    =    -39.999690    -0.000051    -0.176615   -40.176305
	   50 D(5,7,10,8)     =    -39.956587    -0.000001     0.002849   -39.953738
	   51 D(5,7,10,9)     =     80.023368    -0.000115    -0.648790    79.374578
	   52 D(5,7,10,14)    =   -159.974629    -0.000083    -0.411865  -160.386494
	   53 D(6,7,10,8)     =   -159.898219     0.000113     0.646690  -159.251529
	   54 D(6,7,10,9)     =    -39.918265    -0.000002    -0.004949   -39.923214
	   55 D(6,7,10,14)    =     80.083739     0.000031     0.231976    80.315715
	   56 D(7,10,14,11)   =    179.989448     0.000037     0.234225   180.223673
	   57 D(7,10,14,12)   =     59.974196     0.000052     0.269024    60.243220
	   58 D(7,10,14,13)   =    -60.007849     0.000020     0.157757   -59.850091
	   59 D(8,10,14,11)   =     59.987626    -0.000050    -0.249195    59.738430
	   60 D(8,10,14,12)   =    -60.027626    -0.000035    -0.214396   -60.242023
	   61 D(8,10,14,13)   =    179.990329    -0.000067    -0.325663   179.664666
	   62 D(9,10,14,11)   =    -59.989345     0.000072     0.458072   -59.531272
	   63 D(9,10,14,12)   =    179.995403     0.000087     0.492871   180.488275
	   64 D(9,10,14,13)   =     60.013359     0.000055     0.381605    60.394964
	 ---------------------------------------------------------------------------
	Successfully symmetrized geometry.
	 Forces used to impose fixed constraints are not included.
	  Forces zeroed: 49 

  ==> Convergence Check <==

  Measures of convergence in internal coordinates in au.
  Criteria marked as inactive (o), active & met (*), and active & unmet ( ).
  --------------------------------------------------------------------------------------------- ~
   Step     Total Energy     Delta E     MAX Force     RMS Force      MAX Disp      RMS Disp    ~
  --------------------------------------------------------------------------------------------- ~
    Convergence Criteria    1.00e-06 *    3.00e-04 *             o    1.20e-03 *             o  ~
  --------------------------------------------------------------------------------------------- ~
      1    -158.15109946   -1.58e+02      3.39e-02      8.86e-03 o    4.97e-02      1.26e-02 o  ~
  ---------------------------------------------------------------------------------------------

	Writing optimization data to binary file.
	Structure for next step:
	Cartesian Geometry (in Angstrom)
	    H     0.7822025138   1.3896618465   0.8101174864
	    H    -0.7271312556   2.2807653965   0.8898059229
	    H    -0.5521150740   0.7651919868   1.7632080978
	    C    -0.2878768158   1.2958595633   0.8630529057
	    H    -1.8853355226   0.4537129556  -0.2913621928
	    H    -0.5457061341   1.0734165742  -1.2538293916
	    C    -0.8118338721   0.5274652379  -0.3636066651
	    H    -0.7680122696  -1.5445200727   0.2122039691
	    H    -0.3369119685  -1.2519204575  -1.4711141728
	    C    -0.2242923896  -0.8994562572  -0.4586832318
	    H     1.6332194068  -1.9551417985  -0.1699839468
	    H     1.4064642409  -0.6043887761   0.9255492624
	    H     1.8277086122  -0.3076804644  -0.7516790484
	    C     1.2674993188  -0.9439892532  -0.0855397906
			--------------------------
			 OPTKING Finished Execution 
			--------------------------

    Structure for next step:
    Molecular point group: c1
    Full point group: C1

    Geometry (in Angstrom), charge = 0, multiplicity = 1:

    H            0.779398253781     1.388628944810     0.807865663326
    H           -0.729935515608     2.279732494749     0.887554099795
    H           -0.554919333977     0.764159085027     1.760956274762
    C           -0.290681075820     1.294826661547     0.860801082656
    H           -1.888139782581     0.452680053882    -0.293614015857
    H           -0.548510394091     1.072383672462    -1.256081214624
    C           -0.814638132105     0.526432336177    -0.365858488164
    H           -0.770816529590    -1.545552974462     0.209952146076
    H           -0.339716228528    -1.252953359258    -1.473365995910
    C           -0.227096649646    -0.900489158880    -0.460935054896
    H            1.630415146793    -1.956174700259    -0.172235769912
    H            1.403659980864    -0.605421677833     0.923297439355
    H            1.824904352199    -0.308713366111    -0.753930871505
    C            1.264695058802    -0.945022154946    -0.087791613635

gradient() will perform analytic gradient computation.

*** tstart() called on gpu-1-8.local
*** at Wed Jun 14 14:32:36 2017

    SCF Algorithm Type (re)set to DF.

*** tstart() called on gpu-1-8.local
*** at Wed Jun 14 14:32:36 2017

   => Loading Basis Set <=

    Name: AUG-CC-PVTZ
    Role: ORBITAL
    Keyword: BASIS
    atoms 1-3, 5-6, 8-9, 11-13 entry H          line    34 file /cbio/jclab/home/chayas/anaconda/envs/py35/share/psi4/basis/aug-cc-pvtz.gbs 
    atoms 4, 7, 10, 14         entry C          line   221 file /cbio/jclab/home/chayas/anaconda/envs/py35/share/psi4/basis/aug-cc-pvtz.gbs 


         ---------------------------------------------------------
                                   SCF
            by Justin Turney, Rob Parrish, and Andy Simmonett
                              RHF Reference
                        1 Threads,    953 MiB Core
         ---------------------------------------------------------

  ==> Geometry <==

    Molecular point group: c1
    Full point group: C1

    Geometry (in Angstrom), charge = 0, multiplicity = 1:

       Center              X                  Y                   Z               Mass       
    ------------   -----------------  -----------------  -----------------  -----------------
           H          0.779398253781     1.388628944810     0.807865663326     1.007825032070
           H         -0.729935515608     2.279732494749     0.887554099795     1.007825032070
           H         -0.554919333977     0.764159085027     1.760956274762     1.007825032070
           C         -0.290681075820     1.294826661547     0.860801082656    12.000000000000
           H         -1.888139782581     0.452680053882    -0.293614015857     1.007825032070
           H         -0.548510394091     1.072383672462    -1.256081214624     1.007825032070
           C         -0.814638132105     0.526432336177    -0.365858488164    12.000000000000
           H         -0.770816529590    -1.545552974462     0.209952146076     1.007825032070
           H         -0.339716228528    -1.252953359258    -1.473365995910     1.007825032070
           C         -0.227096649646    -0.900489158880    -0.460935054896    12.000000000000
           H          1.630415146793    -1.956174700259    -0.172235769912     1.007825032070
           H          1.403659980864    -0.605421677833     0.923297439355     1.007825032070
           H          1.824904352199    -0.308713366111    -0.753930871505     1.007825032070
           C          1.264695058802    -0.945022154946    -0.087791613635    12.000000000000

  Running in c1 symmetry.

  Rotational constants: A =      0.40420  B =      0.18022  C =      0.14122 [cm^-1]
  Rotational constants: A =  12117.50485  B =   5402.94419  C =   4233.61877 [MHz]
  Nuclear repulsion =  134.092557750344582

  Charge       = 0
  Multiplicity = 1
  Electrons    = 34
  Nalpha       = 17
  Nbeta        = 17

  ==> Algorithm <==

  SCF Algorithm Type is DF.
  DIIS enabled.
  MOM disabled.
  Fractional occupation disabled.
  Guess Type is READ.
  Energy threshold   = 1.00e-10
  Density threshold  = 1.00e-10
  Integral threshold = 0.00e+00

  ==> Primary Basis <==

  Basis Set: AUG-CC-PVTZ
    Blend: AUG-CC-PVTZ
    Number of shells: 146
    Number of basis function: 414
    Number of Cartesian functions: 470
    Spherical Harmonics?: true
    Max angular momentum: 3

   => Loading Basis Set <=

    Name: (AUG-CC-PVTZ AUX)
    Role: JKFIT
    Keyword: DF_BASIS_SCF
    atoms 1-3, 5-6, 8-9, 11-13 entry H          line    69 file /cbio/jclab/home/chayas/anaconda/envs/py35/share/psi4/basis/aug-cc-pvtz-jkfit.gbs 
    atoms 4, 7, 10, 14         entry C          line   161 file /cbio/jclab/home/chayas/anaconda/envs/py35/share/psi4/basis/aug-cc-pvtz-jkfit.gbs 

  Reading orbitals from file 180, no projection.

  ==> Pre-Iterations <==

   -------------------------------------------------------
    Irrep   Nso     Nmo     Nalpha   Nbeta   Ndocc  Nsocc
   -------------------------------------------------------
     A        414     414       0       0       0       0
   -------------------------------------------------------
    Total     414     414      17      17      17       0
   -------------------------------------------------------

  ==> Integral Setup <==

  ==> DFJK: Density-Fitted J/K Matrices <==

    J tasked:                  Yes
    K tasked:                  Yes
    wK tasked:                  No
    OpenMP threads:              1
    Integrals threads:           1
    Memory (MB):               715
    Algorithm:                Core
    Integral Cache:           NONE
    Schwarz Cutoff:          1E-12
    Fitting Condition:       1E-12

   => Auxiliary Basis Set <=

  Basis Set: (AUG-CC-PVTZ AUX)
    Blend: AUG-CC-PVTZ-JKFIT
    Number of shells: 260
    Number of basis function: 876
    Number of Cartesian functions: 1074
    Spherical Harmonics?: true
    Max angular momentum: 4

  Minimum eigenvalue in the overlap matrix is 6.4149930661E-06.
  Using Symmetric Orthogonalization.

  SCF Guess: Orbitals guess was supplied from a previous computation.

  ==> Iterations <==

                           Total Energy        Delta E     RMS |[F,P]|

   @DF-RHF iter   0:  -157.30442119086447   -1.57304e+02   2.53028e-04 
   @DF-RHF iter   1:  -157.34870125947015   -4.42801e-02   6.70229e-05 
   @DF-RHF iter   2:  -157.34919750148498   -4.96242e-04   3.19500e-05 DIIS
   @DF-RHF iter   3:  -157.34929373366057   -9.62322e-05   7.83618e-06 DIIS
   @DF-RHF iter   4:  -157.34930616445064   -1.24308e-05   1.07280e-06 DIIS
   @DF-RHF iter   5:  -157.34930639806021   -2.33610e-07   2.30251e-07 DIIS
   @DF-RHF iter   6:  -157.34930640924097   -1.11808e-08   5.39659e-08 DIIS
   @DF-RHF iter   7:  -157.34930640992764   -6.86668e-10   1.15395e-08 DIIS
   @DF-RHF iter   8:  -157.34930640995586   -2.82228e-11   3.23086e-09 DIIS
   @DF-RHF iter   9:  -157.34930640995762   -1.76215e-12   8.80201e-10 DIIS
   @DF-RHF iter  10:  -157.34930640995771   -8.52651e-14   1.65339e-10 DIIS
   @DF-RHF iter  11:  -157.34930640995628    1.42109e-12   2.97675e-11 DIIS

  ==> Post-Iterations <==

    Orbital Energies (a.u.)
    -----------------------

    Doubly Occupied:                                                      

       1A    -11.210050     2A    -11.209476     3A    -11.201789  
       4A    -11.201739     5A     -1.069966     6A     -0.972667  
       7A     -0.879343     8A     -0.773305     9A     -0.637072  
      10A     -0.620970    11A     -0.574109    12A     -0.533994  
      13A     -0.528898    14A     -0.509221    15A     -0.463923  
      16A     -0.455065    17A     -0.453677  

    Virtual:                                                              

      18A      0.031748    19A      0.038111    20A      0.039703  
      21A      0.040070    22A      0.057594    23A      0.060111  
      24A      0.061525    25A      0.062905    26A      0.063467  
      27A      0.086831    28A      0.120628    29A      0.123240  
      30A      0.123327    31A      0.126177    32A      0.126660  
      33A      0.131621    34A      0.138193    35A      0.140815  
      36A      0.142133    37A      0.147937    38A      0.161074  
      39A      0.165815    40A      0.170902    41A      0.192027  
      42A      0.198068    43A      0.215788    44A      0.234045  
      45A      0.240312    46A      0.273473    47A      0.273588  
      48A      0.285803    49A      0.289656    50A      0.303827  
      51A      0.304277    52A      0.309630    53A      0.315358  
      54A      0.317495    55A      0.329962    56A      0.330181  
      57A      0.333223    58A      0.349813    59A      0.351999  
      60A      0.356195    61A      0.358041    62A      0.363159  
      63A      0.365629    64A      0.377513    65A      0.386040  
      66A      0.394689    67A      0.409925    68A      0.412778  
      69A      0.417961    70A      0.426034    71A      0.441760  
      72A      0.442510    73A      0.448730    74A      0.450290  
      75A      0.458854    76A      0.461909    77A      0.464252  
      78A      0.471706    79A      0.475868    80A      0.477047  
      81A      0.479011    82A      0.490569    83A      0.497355  
      84A      0.502123    85A      0.517327    86A      0.532419  
      87A      0.539524    88A      0.550886    89A      0.552416  
      90A      0.555124    91A      0.564271    92A      0.566983  
      93A      0.569583    94A      0.575697    95A      0.584647  
      96A      0.600111    97A      0.607740    98A      0.615900  
      99A      0.630629   100A      0.630693   101A      0.643501  
     102A      0.663231   103A      0.671157   104A      0.676993  
     105A      0.682702   106A      0.700018   107A      0.753440  
     108A      0.781198   109A      0.789992   110A      0.811195  
     111A      0.814700   112A      0.830330   113A      0.833520  
     114A      0.836696   115A      0.859196   116A      0.867293  
     117A      0.867946   118A      0.869357   119A      0.882242  
     120A      0.884237   121A      0.900465   122A      0.910672  
     123A      0.914820   124A      0.921444   125A      0.933729  
     126A      0.934745   127A      0.949624   128A      0.966564  
     129A      0.974017   130A      0.974417   131A      0.985982  
     132A      0.986476   133A      0.992721   134A      0.994763  
     135A      1.005007   136A      1.033150   137A      1.040534  
     138A      1.050432   139A      1.059046   140A      1.067416  
     141A      1.083487   142A      1.095896   143A      1.103836  
     144A      1.104838   145A      1.111306   146A      1.126762  
     147A      1.130414   148A      1.146587   149A      1.146791  
     150A      1.159840   151A      1.162618   152A      1.189679  
     153A      1.194342   154A      1.199680   155A      1.206555  
     156A      1.217632   157A      1.228474   158A      1.236382  
     159A      1.253581   160A      1.258281   161A      1.264381  
     162A      1.272903   163A      1.280885   164A      1.296903  
     165A      1.311820   166A      1.327403   167A      1.335276  
     168A      1.355277   169A      1.356415   170A      1.372031  
     171A      1.390926   172A      1.412087   173A      1.427293  
     174A      1.438148   175A      1.465604   176A      1.468671  
     177A      1.481263   178A      1.496663   179A      1.503733  
     180A      1.513930   181A      1.527435   182A      1.537921  
     183A      1.547198   184A      1.564749   185A      1.588937  
     186A      1.597090   187A      1.614399   188A      1.620447  
     189A      1.645968   190A      1.659215   191A      1.660533  
     192A      1.671513   193A      1.674864   194A      1.690109  
     195A      1.693246   196A      1.698227   197A      1.718805  
     198A      1.739622   199A      1.744747   200A      1.752095  
     201A      1.763109   202A      1.774742   203A      1.775844  
     204A      1.785985   205A      1.804600   206A      1.810001  
     207A      1.818711   208A      1.841731   209A      1.844160  
     210A      1.851729   211A      1.878668   212A      1.894496  
     213A      1.907530   214A      1.918386   215A      1.931430  
     216A      1.932710   217A      1.946148   218A      1.973043  
     219A      2.006733   220A      2.015195   221A      2.018923  
     222A      2.043044   223A      2.048768   224A      2.051224  
     225A      2.059545   226A      2.067839   227A      2.078005  
     228A      2.096190   229A      2.123803   230A      2.150296  
     231A      2.173905   232A      2.179307   233A      2.201175  
     234A      2.212920   235A      2.248123   236A      2.263326  
     237A      2.286722   238A      2.300711   239A      2.304052  
     240A      2.318473   241A      2.323506   242A      2.332906  
     243A      2.373417   244A      2.379457   245A      2.390401  
     246A      2.415206   247A      2.436428   248A      2.451733  
     249A      2.482307   250A      2.505610   251A      2.529873  
     252A      2.557559   253A      2.579806   254A      2.592397  
     255A      2.593179   256A      2.674273   257A      2.811407  
     258A      2.827181   259A      2.937736   260A      3.055614  
     261A      3.243212   262A      3.290337   263A      3.304341  
     264A      3.380463   265A      3.384711   266A      3.439195  
     267A      3.440406   268A      3.491210   269A      3.505101  
     270A      3.541434   271A      3.545732   272A      3.554086  
     273A      3.568277   274A      3.580868   275A      3.625610  
     276A      3.661416   277A      3.662150   278A      3.674883  
     279A      3.687065   280A      3.694107   281A      3.702806  
     282A      3.716265   283A      3.719864   284A      3.764908  
     285A      3.783548   286A      3.783809   287A      3.797015  
     288A      3.819365   289A      3.831815   290A      3.854155  
     291A      3.856510   292A      3.857438   293A      3.888324  
     294A      3.888453   295A      3.932877   296A      3.944650  
     297A      3.984597   298A      3.992322   299A      3.996508  
     300A      4.005554   301A      4.020968   302A      4.029570  
     303A      4.043647   304A      4.052773   305A      4.062529  
     306A      4.073519   307A      4.086462   308A      4.115275  
     309A      4.147981   310A      4.150129   311A      4.154357  
     312A      4.165447   313A      4.235211   314A      4.249518  
     315A      4.258758   316A      4.263778   317A      4.278008  
     318A      4.306628   319A      4.315000   320A      4.339130  
     321A      4.345487   322A      4.364590   323A      4.401207  
     324A      4.428664   325A      4.439191   326A      4.460170  
     327A      4.480027   328A      4.545537   329A      4.578639  
     330A      4.596651   331A      4.620627   332A      4.644081  
     333A      4.656000   334A      4.674981   335A      4.707812  
     336A      4.723552   337A      4.763751   338A      4.777015  
     339A      4.793697   340A      4.799976   341A      4.841026  
     342A      4.847163   343A      4.873978   344A      4.886300  
     345A      4.920171   346A      4.921566   347A      4.951967  
     348A      4.956293   349A      4.978302   350A      5.006139  
     351A      5.023486   352A      5.060315   353A      5.069640  
     354A      5.096552   355A      5.100374   356A      5.135554  
     357A      5.157227   358A      5.186936   359A      5.196241  
     360A      5.211455   361A      5.248924   362A      5.272871  
     363A      5.286702   364A      5.339532   365A      5.344416  
     366A      5.377251   367A      5.387085   368A      5.391010  
     369A      5.405277   370A      5.417095   371A      5.468864  
     372A      5.483685   373A      5.496622   374A      5.521725  
     375A      5.527631   376A      5.577449   377A      5.579200  
     378A      5.658476   379A      5.668046   380A      5.689602  
     381A      5.702189   382A      5.752684   383A      5.761865  
     384A      5.822149   385A      5.822777   386A      5.846989  
     387A      5.884523   388A      5.946802   389A      5.953393  
     390A      5.992294   391A      6.089100   392A      6.115671  
     393A      6.130078   394A      6.190027   395A      6.193484  
     396A      6.247072   397A      6.254197   398A      6.307754  
     399A      6.323126   400A      6.361386   401A      6.391035  
     402A      6.458311   403A      6.574303   404A      6.589851  
     405A      6.776734   406A      6.780149   407A      6.868473  
     408A      6.897143   409A      6.920286   410A      6.967221  
     411A     17.983130   412A     18.158671   413A     18.842145  
     414A     19.175332  

    Final Occupation by Irrep:
              A 
    DOCC [    17 ]

  Energy converged.

  @DF-RHF Final Energy:  -157.34930640995628

   => Energetics <=

    Nuclear Repulsion Energy =            134.0925577503445822
    One-Electron Energy =                -476.2932032078726365
    Two-Electron Energy =                 184.8513390475717415
    DFT Exchange-Correlation Energy =       0.0000000000000000
    Empirical Dispersion Energy =           0.0000000000000000
    PCM Polarization Energy =               0.0000000000000000
    EFP Energy =                            0.0000000000000000
    Total Energy =                       -157.3493064099562844



Properties will be evaluated at   0.000000,   0.000000,   0.000000 Bohr

Properties computed using the SCF density matrix

  Nuclear Dipole Moment: (a.u.)
     X:     0.7559      Y:     0.2707      Z:     0.6004

  Electronic Dipole Moment: (a.u.)
     X:    -0.7806      Y:    -0.2799      Z:    -0.6201

  Dipole Moment: (a.u.)
     X:    -0.0247      Y:    -0.0092      Z:    -0.0198     Total:     0.0330

  Dipole Moment: (Debye)
     X:    -0.0628      Y:    -0.0233      Z:    -0.0502     Total:     0.0838


*** tstop() called on gpu-1-8.local at Wed Jun 14 14:34:02 2017
Module time:
	user time   =      85.13 seconds =       1.42 minutes
	system time =       0.46 seconds =       0.01 minutes
	total time  =         86 seconds =       1.43 minutes
Total time:
	user time   =     561.08 seconds =       9.35 minutes
	system time =       3.89 seconds =       0.06 minutes
	total time  =        566 seconds =       9.43 minutes

  //>>>>>>>>>>>>>>>>>>>>>>>>>>>>>>>>>>>//
  //               DFMP2               //
  //<<<<<<<<<<<<<<<<<<<<<<<<<<<<<<<<<<<//

   => Loading Basis Set <=

    Name: (AUG-CC-PVTZ AUX)
    Role: RIFIT
    Keyword: DF_BASIS_MP2
    atoms 1-3, 5-6, 8-9, 11-13 entry H          line    29 file /cbio/jclab/home/chayas/anaconda/envs/py35/share/psi4/basis/aug-cc-pvtz-ri.gbs 
    atoms 4, 7, 10, 14         entry C          line   147 file /cbio/jclab/home/chayas/anaconda/envs/py35/share/psi4/basis/aug-cc-pvtz-ri.gbs 

	 --------------------------------------------------------
	                          DF-MP2                         
	      2nd-Order Density-Fitted Moller-Plesset Theory     
	              RMP2 Wavefunction,   1 Threads             
	                                                         
	        Rob Parrish, Justin Turney, Andy Simmonett,      
	           Ed Hohenstein, and C. David Sherrill          
	 --------------------------------------------------------

   => Auxiliary Basis Set <=

  Basis Set: (AUG-CC-PVTZ AUX)
    Blend: AUG-CC-PVTZ-RI
    Number of shells: 252
    Number of basis function: 884
    Number of Cartesian functions: 1094
    Spherical Harmonics?: true
    Max angular momentum: 4

	 --------------------------------------------------------
	                 NBF =   414, NAUX =   884
	 --------------------------------------------------------
	   CLASS    FOCC     OCC    AOCC    AVIR     VIR    FVIR
	   PAIRS       0      17      17     397     397       0
	 --------------------------------------------------------


         ------------------------------------------------------------
                                     CPHF                           
                                  Rob Parrish                       
         ------------------------------------------------------------

  ==> Geometry <==

    Molecular point group: c1
    Full point group: C1

    Geometry (in Angstrom), charge = 0, multiplicity = 1:

       Center              X                  Y                   Z               Mass       
    ------------   -----------------  -----------------  -----------------  -----------------
           H          0.779398253781     1.388628944810     0.807865663326     1.007825032070
           H         -0.729935515608     2.279732494749     0.887554099795     1.007825032070
           H         -0.554919333977     0.764159085027     1.760956274762     1.007825032070
           C         -0.290681075820     1.294826661547     0.860801082656    12.000000000000
           H         -1.888139782581     0.452680053882    -0.293614015857     1.007825032070
           H         -0.548510394091     1.072383672462    -1.256081214624     1.007825032070
           C         -0.814638132105     0.526432336177    -0.365858488164    12.000000000000
           H         -0.770816529590    -1.545552974462     0.209952146076     1.007825032070
           H         -0.339716228528    -1.252953359258    -1.473365995910     1.007825032070
           C         -0.227096649646    -0.900489158880    -0.460935054896    12.000000000000
           H          1.630415146793    -1.956174700259    -0.172235769912     1.007825032070
           H          1.403659980864    -0.605421677833     0.923297439355     1.007825032070
           H          1.824904352199    -0.308713366111    -0.753930871505     1.007825032070
           C          1.264695058802    -0.945022154946    -0.087791613635    12.000000000000

  Nuclear repulsion =  134.092557750344582
  Reference energy  = -157.349306409956284

  ==> Basis Set <==

  Basis Set: AUG-CC-PVTZ
    Blend: AUG-CC-PVTZ
    Number of shells: 146
    Number of basis function: 414
    Number of Cartesian functions: 470
    Spherical Harmonics?: true
    Max angular momentum: 3

  ==> CGRSolver (by Rob Parrish) <==

   Number of roots    =         1
   Preconditioning    =    JACOBI
   Convergence cutoff =     1E-06
   Maximum iterations =       100

  ==> CPHFRHamiltonian (by Rob Parrish) <== 

  ==> DFJK: Density-Fitted J/K Matrices <==

    J tasked:                  Yes
    K tasked:                  Yes
    wK tasked:                  No
    OpenMP threads:              1
    Integrals threads:           1
    Memory (MB):               715
    Algorithm:                Core
    Integral Cache:           NONE
    Schwarz Cutoff:          1E-12
    Fitting Condition:       1E-12

   => Auxiliary Basis Set <=

  Basis Set: (AUG-CC-PVTZ AUX)
    Blend: AUG-CC-PVTZ-JKFIT
    Number of shells: 260
    Number of basis function: 876
    Number of Cartesian functions: 1074
    Spherical Harmonics?: true
    Max angular momentum: 4

  ==> CPHF Iterations <==

  => Iterations <=

             Iter  Converged  Remaining    Residual
  CGR           1          0          1   8.603E-02
  CGR           2          0          1   1.366E-02
  CGR           3          0          1   3.212E-03
  CGR           4          0          1   7.889E-04
  CGR           5          0          1   1.799E-04
  CGR           6          0          1   3.084E-05
  CGR           7          0          1   5.383E-06
  CGR           8          0          1   1.172E-06
  CGR           9          1          0   1.658E-07

    CGRSolver converged.

  ==> DFCorrGrad: Density-Fitted Correlated Gradients <==

    OpenMP threads:              1
    Integrals threads:           1
    Memory (MB):               715
    Schwarz Cutoff:          0E+00
    Fitting Condition:       1E-12

   => Auxiliary Basis Set <=

  Basis Set: (AUG-CC-PVTZ AUX)
    Blend: AUG-CC-PVTZ-JKFIT
    Number of shells: 260
    Number of basis function: 876
    Number of Cartesian functions: 1074
    Spherical Harmonics?: true
    Max angular momentum: 4

	-----------------------------------------------------------
	 ==================> DF-MP2 Energies <==================== 
	-----------------------------------------------------------
	 Reference Energy          =    -157.3493064099562844 [Eh]
	 Singles Energy            =      -0.0000000000000000 [Eh]
	 Same-Spin Energy          =      -0.1660846926196069 [Eh]
	 Opposite-Spin Energy      =      -0.6404020523786034 [Eh]
	 Correlation Energy        =      -0.8064867449982103 [Eh]
	 Total Energy              =    -158.1557931549544946 [Eh]
	-----------------------------------------------------------
	 ================> DF-SCS-MP2 Energies <================== 
	-----------------------------------------------------------
	 SCS Same-Spin Scale       =       0.3333333333333333 [-]
	 SCS Opposite-Spin Scale   =       1.2000000000000000 [-]
	 SCS Same-Spin Energy      =      -0.0553615642065356 [Eh]
	 SCS Opposite-Spin Energy  =      -0.7684824628543240 [Eh]
	 SCS Correlation Energy    =      -0.8238440270608596 [Eh]
	 SCS Total Energy          =    -158.1731504370171422 [Eh]
	-----------------------------------------------------------


  -Total Gradient:
     Atom            X                  Y                   Z
    ------   -----------------  -----------------  -----------------
       1       -0.005632191944    -0.003373415232    -0.001624718196
       2        0.001690511280    -0.005283705835    -0.002226546394
       3        0.000484976561     0.001870079253    -0.007273123896
       4        0.009712493820     0.007753217796     0.016366598265
       5        0.006878117311    -0.001648872252     0.003819807340
       6        0.000709639703    -0.004261666976     0.006771143425
       7       -0.015503936871     0.008823409288    -0.015400379957
       8        0.004440804283     0.006070154013    -0.002530799241
       9        0.003802047042     0.005544283230     0.004914279562
      10       -0.012107126960    -0.018986169414    -0.007248954752
      11       -0.003993444467     0.004617652856     0.000500432110
      12       -0.003504827604     0.000036715832    -0.005647779648
      13       -0.005592954633    -0.003612945403     0.003004372694
      14        0.018615892479     0.002451262846     0.006575668687


*** tstop() called on gpu-1-8.local at Wed Jun 14 14:40:24 2017
Module time:
	user time   =     464.02 seconds =       7.73 minutes
	system time =       3.18 seconds =       0.05 minutes
	total time  =        468 seconds =       7.80 minutes
Total time:
	user time   =     939.97 seconds =      15.67 minutes
	system time =       6.61 seconds =       0.11 minutes
	total time  =        948 seconds =      15.80 minutes

			-----------------------------------------
			 OPTKING 2.0: for geometry optimizations 
			  - R.A. King,  Bethel University        
			-----------------------------------------

	Previous internal coordinate definitions found.
	---Fragment 1 Geometry and Gradient---
	 H           1.4728492481        2.6241284059        1.5266448558
	 H          -1.3793782192        4.3080700713        1.6772341767
	 H          -1.0486455671        1.4440513927        3.3277250913
	 C          -0.5493076253        2.4468677799        1.6266783011
	 H          -3.5680670897        0.8554413277       -0.5548500787
	 H          -1.0365344259        2.0265114503       -2.3736494963
	 C          -1.5394429671        0.9948129429       -0.6913723460
	 H          -1.4566321396       -2.9206718456        0.3967520571
	 H          -0.6419706348       -2.3677387063       -2.7842582258
	 C          -0.4291504735       -1.7016778959       -0.8710410188
	 H           3.0810381103       -3.6966344516       -0.3254784354
	 H           2.6525329475       -1.1440811660        1.7447792996
	 H           3.4485694444       -0.5833837155       -1.4247228703
	 C           2.3899273027       -1.7858330624       -0.1659021065
	            -0.0056321919       -0.0033734152       -0.0016247182
	             0.0016905113       -0.0052837058       -0.0022265464
	             0.0004849766        0.0018700793       -0.0072731239
	             0.0097124938        0.0077532178        0.0163665983
	             0.0068781173       -0.0016488723        0.0038198073
	             0.0007096397       -0.0042616670        0.0067711434
	            -0.0155039369        0.0088234093       -0.0154003800
	             0.0044408043        0.0060701540       -0.0025307992
	             0.0038020470        0.0055442832        0.0049142796
	            -0.0121071270       -0.0189861694       -0.0072489548
	            -0.0039934445        0.0046176529        0.0005004321
	            -0.0035048276        0.0000367158       -0.0056477796
	            -0.0055929546       -0.0036129454        0.0030043727
	             0.0186158925        0.0024512628        0.0065756687

	---Fragment 1 Intrafragment Coordinates---
	 - Coordinate -           - BOHR/RAD -       - ANG/DEG -
	 R(1,4)           =         2.032375	       1.075486
	 R(2,4)           =         2.038540	       1.078749
	 R(3,4)           =         2.036796	       1.077826
	 R(4,7)           =         2.908984	       1.539368
	 R(5,7)           =         2.037984	       1.078455
	 R(6,7)           =         2.036511	       1.077675
	 R(7,10)          =         2.921659	       1.546076
	 R(8,10)          =         2.036901	       1.077881
	 R(9,10)          =         2.036990	       1.077929
	 R(10,14)         =         2.907147	       1.538396
	 R(11,14)         =         2.038200	       1.078569
	 R(12,14)         =         2.032612	       1.075612
	 R(13,14)         =         2.037459	       1.078177
	 B(1,4,2)         =         1.903639	     109.070486
	 B(1,4,3)         =         1.904955	     109.145879
	 B(1,4,7)         =         1.920879	     110.058234
	 B(2,4,3)         =         1.906021	     109.206956
	 B(2,4,7)         =         1.914425	     109.688445
	 B(3,4,7)         =         1.913777	     109.651360
	 B(4,7,5)         =         1.896065	     108.636546
	 B(4,7,6)         =         1.897922	     108.742942
	 B(4,7,10)        =         1.960968	     112.355188
	 B(5,7,6)         =         1.913244	     109.620811
	 B(5,7,10)        =         1.895765	     108.619321
	 B(6,7,10)        =         1.899604	     108.839268
	 B(7,10,8)        =         1.899020	     108.805830
	 B(7,10,9)        =         1.896355	     108.653110
	 B(7,10,14)       =         1.960927	     112.352864
	 B(8,10,9)        =         1.913682	     109.645928
	 B(8,10,14)       =         1.897434	     108.714954
	 B(9,10,14)       =         1.896170	     108.642527
	 B(10,14,11)      =         1.914477	     109.691464
	 B(10,14,12)      =         1.922126	     110.129688
	 B(10,14,13)      =         1.914425	     109.688483
	 B(11,14,12)      =         1.902635	     109.012927
	 B(11,14,13)      =         1.905753	     109.191590
	 B(12,14,13)      =         1.904256	     109.105828
	 D(1,4,7,5)       =        -3.133740	    -179.550075
	 D(1,4,7,6)       =        -1.052397	     -60.297908
	 D(1,4,7,10)      =         1.051556	      60.249710
	 D(2,4,7,5)       =        -1.039258	     -59.545084
	 D(2,4,7,6)       =         1.042085	      59.707084
	 D(2,4,7,10)      =        -3.137147	    -179.745298
	 D(3,4,7,5)       =         1.053746	      60.375206
	 D(3,4,7,6)       =         3.135089	     179.627373
	 D(3,4,7,10)      =        -1.044143	     -59.825009
	 D(4,7,10,8)      =         1.400739	      80.256450
	 D(4,7,10,9)      =        -2.799774	    -160.415234
	 D(4,7,10,14)     =        -0.701209	     -40.176305
	 D(5,7,10,8)      =        -0.697324	     -39.953738
	 D(5,7,10,9)      =         1.385348	      79.374578
	 D(5,7,10,14)     =        -2.799272	    -160.386494
	 D(6,7,10,8)      =        -2.779464	    -159.251529
	 D(6,7,10,9)      =        -0.696792	     -39.923214
	 D(6,7,10,14)     =         1.401774	      80.315715
	 D(7,10,14,11)    =        -3.137689	    -179.776327
	 D(7,10,14,12)    =         1.051443	      60.243220
	 D(7,10,14,13)    =        -1.044581	     -59.850091
	 D(8,10,14,11)    =         1.042632	      59.738430
	 D(8,10,14,12)    =        -1.051422	     -60.242023
	 D(8,10,14,13)    =         3.135740	     179.664666
	 D(9,10,14,11)    =        -1.039017	     -59.531272
	 D(9,10,14,12)    =        -3.133071	    -179.511725
	 D(9,10,14,13)    =         1.054091	      60.394964

	Current energy   :      -158.1557931550

	Energy change for the previous step:
		Projected    :        -0.0071998935
		Actual       :        -0.0046936945

	Performing BFGS update.
	Previous computed or guess Hessian on step 1.
	Steps to be used in Hessian update: 1
	Adding user-defined constraint: Fragment 1; Coordinate 49:
		Value =    -0.701209; Fixed value    =    -0.698130
		Force =     0.001616; Force constant =     0.525000
	Removing off-diagonal coupling between coordinate 49 and others.
	Taking RFO optimization step.
	Going to follow RFO solution 1.
	Using RFO vector 1.

	Determining step-restricting scale parameter for RS-RFO.
	Maximum step size allowed    0.10000

	 Iter      |step|        alpha        rfo_root  
	------------------------------------------------
	    0     0.20573       1.00000           1
	    1     0.16030       3.13787           1
	    2     0.12937       9.05929           1
	    3     0.10961      18.65170           1
	    4     0.10145      25.29503           1
	    5     0.10004      26.68186           1
	    6     0.10000      26.72316           1
	------------------------------------------------
	Norm of target step-size    0.10000
	Projected energy change by RFO approximation:        -0.0028272246

	Back-transformation to cartesian coordinates...
	Could not converge backtransformation.
	Using first guess instead.

	--- Internal Coordinate Step in ANG or DEG, aJ/ANG or AJ/DEG ---
	 ---------------------------------------------------------------------------
	   Coordinate                Previous        Force       Change         New 
	   ----------                --------       ------       ------       ------
	    1 R(1,4)          =      1.075486     0.047934     0.009741     1.085227
	    2 R(2,4)          =      1.078749     0.045870     0.008001     1.086750
	    3 R(3,4)          =      1.077826     0.058609     0.010109     1.087935
	    4 R(4,7)          =      1.539368    -0.055932    -0.012165     1.527203
	    5 R(5,7)          =      1.078455     0.053369     0.009156     1.087611
	    6 R(6,7)          =      1.077675     0.062425     0.010567     1.088242
	    7 R(7,10)         =      1.546076    -0.034913    -0.011346     1.534729
	    8 R(8,10)         =      1.077881     0.061362     0.010398     1.088280
	    9 R(9,10)         =      1.077929     0.056236     0.009622     1.087550
	   10 R(10,14)        =      1.538396    -0.052162    -0.011347     1.527049
	   11 R(11,14)        =      1.078569     0.047144     0.008208     1.086777
	   12 R(12,14)        =      1.075612     0.047374     0.009637     1.085249
	   13 R(13,14)        =      1.078177     0.056802     0.009811     1.087988
	   14 B(1,4,2)        =    109.070486    -0.000219    -0.668455   108.402031
	   15 B(1,4,3)        =    109.145879    -0.000188    -0.703686   108.442192
	   16 B(1,4,7)        =    110.058234     0.000272     0.816996   110.875230
	   17 B(2,4,3)        =    109.206956    -0.000183    -0.648257   108.558700
	   18 B(2,4,7)        =    109.688445     0.000120     0.429323   110.117768
	   19 B(3,4,7)        =    109.651360     0.000192     0.726476   110.377836
	   20 B(4,7,5)        =    108.636546    -0.000159     0.049543   108.686089
	   21 B(4,7,6)        =    108.742942    -0.000158    -0.146633   108.596309
	   22 B(4,7,10)       =    112.355188     0.000693     1.139672   113.494860
	   23 B(5,7,6)        =    109.620811    -0.000047    -0.777474   108.843337
	   24 B(5,7,10)       =    108.619321    -0.000197    -0.227144   108.392177
	   25 B(6,7,10)       =    108.839268    -0.000141    -0.097483   108.741785
	   26 B(7,10,8)       =    108.805830    -0.000140    -0.092168   108.713662
	   27 B(7,10,9)       =    108.653110    -0.000202    -0.246669   108.406441
	   28 B(7,10,14)      =    112.352864     0.000696     1.148676   113.501540
	   29 B(8,10,9)       =    109.645928    -0.000048    -0.786446   108.859483
	   30 B(8,10,14)      =    108.714954    -0.000157    -0.134880   108.580074
	   31 B(9,10,14)      =    108.642527    -0.000158     0.051666   108.694192
	   32 B(10,14,11)     =    109.691464     0.000122     0.435840   110.127304
	   33 B(10,14,12)     =    110.129688     0.000260     0.774724   110.904412
	   34 B(10,14,13)     =    109.688483     0.000188     0.713809   110.402292
	   35 B(11,14,12)     =    109.012927    -0.000213    -0.643632   108.369295
	   36 B(11,14,13)     =    109.191590    -0.000183    -0.646445   108.545145
	   37 B(12,14,13)     =    109.105828    -0.000182    -0.682803   108.423025
	   38 D(1,4,7,5)      =   -179.550075     0.000040     0.720052  -178.830023
	   39 D(1,4,7,6)      =    -60.297908    -0.000015    -0.268278   -60.566186
	   40 D(1,4,7,10)     =     60.249710     0.000021     0.242557    60.492268
	   41 D(2,4,7,5)      =    -59.545084     0.000034     0.682529   -58.862554
[...]
	 Correlation Energy        =      -0.8062698427144527 [Eh]
	 Total Energy              =    -158.1585344291254103 [Eh]
	-----------------------------------------------------------
	 ================> DF-SCS-MP2 Energies <================== 
	-----------------------------------------------------------
	 SCS Same-Spin Scale       =       0.3333333333333333 [-]
	 SCS Opposite-Spin Scale   =       1.2000000000000000 [-]
	 SCS Same-Spin Energy      =      -0.0553195557694609 [Eh]
	 SCS Opposite-Spin Energy  =      -0.7683734104872838 [Eh]
	 SCS Correlation Energy    =      -0.8236929662567447 [Eh]
	 SCS Total Energy          =    -158.1759575526677111 [Eh]
	-----------------------------------------------------------


  -Total Gradient:
     Atom            X                  Y                   Z
    ------   -----------------  -----------------  -----------------
       1       -0.000012815842    -0.000007082480    -0.000012273147
       2       -0.000001952394    -0.000002438395     0.000005453327
       3        0.000006973730     0.000002635677     0.000010497048
       4        0.002497472668     0.001210231255    -0.001805685396
       5        0.000009163586     0.000012908906     0.000007226112
       6        0.000013540725    -0.000023705494    -0.000014528477
       7       -0.003861771548    -0.001933438126     0.003879485375
       8       -0.000020246178     0.000021163127     0.000009121949
       9        0.000013104096    -0.000004584005     0.000010147752
      10        0.002099336148     0.001306093421    -0.005252785633
      11        0.000003934580     0.000002797628    -0.000004062964
      12       -0.000015874250    -0.000003293796    -0.000010100643
      13        0.000011139774     0.000003943302     0.000003927181
      14       -0.000742005095    -0.000585231018     0.003173577513


*** tstop() called on gpu-1-8.local at Wed Jun 14 16:32:12 2017
Module time:
	user time   =     455.17 seconds =       7.59 minutes
	system time =       3.76 seconds =       0.06 minutes
	total time  =        459 seconds =       7.65 minutes
Total time:
	user time   =    7586.64 seconds =     126.44 minutes
	system time =      59.23 seconds =       0.99 minutes
	total time  =       7656 seconds =     127.60 minutes

			-----------------------------------------
			 OPTKING 2.0: for geometry optimizations 
			  - R.A. King,  Bethel University        
			-----------------------------------------

	Previous internal coordinate definitions found.
	---Fragment 1 Geometry and Gradient---
	 H           1.4258000356        2.8565099822        1.4908127036
	 H          -1.5616382363        4.2741005214        1.7664138092
	 H          -0.9135926117        1.4426569369        3.3806595763
	 C          -0.5856770781        2.4706649110        1.6272354043
	 H          -3.5745876173        0.8484272951       -0.5910502451
	 H          -1.0512995354        2.0411104216       -2.3471287616
	 C          -1.5212223720        0.9821159451       -0.6406428538
	 H          -1.4319214682       -2.9256926738        0.4126382586
	 H          -0.7313956543       -2.3823147712       -2.7634136438
	 C          -0.4057236966       -1.6685371654       -0.8604948624
	 H           3.1039155768       -3.7247068501       -0.5649516339
	 H           2.7324551487       -1.3752522308        1.7485698585
	 H           3.4905473512       -0.5246793988       -1.3731423815
	 C           2.3876290759       -1.8287693362       -0.2234710166
	            -0.0000128158       -0.0000070825       -0.0000122731
	            -0.0000019524       -0.0000024384        0.0000054533
	             0.0000069737        0.0000026357        0.0000104970
	             0.0024974727        0.0012102313       -0.0018056854
	             0.0000091636        0.0000129089        0.0000072261
	             0.0000135407       -0.0000237055       -0.0000145285
	            -0.0038617715       -0.0019334381        0.0038794854
	            -0.0000202462        0.0000211631        0.0000091219
	             0.0000131041       -0.0000045840        0.0000101478
	             0.0020993361        0.0013060934       -0.0052527856
	             0.0000039346        0.0000027976       -0.0000040630
	            -0.0000158742       -0.0000032938       -0.0000101006
	             0.0000111398        0.0000039433        0.0000039272
	            -0.0007420051       -0.0005852310        0.0031735775

	---Fragment 1 Intrafragment Coordinates---
	 - Coordinate -           - BOHR/RAD -       - ANG/DEG -
	 R(1,4)           =         2.052688	       1.086236
	 R(2,4)           =         2.055298	       1.087617
	 R(3,4)           =         2.058841	       1.089492
	 R(4,7)           =         2.869546	       1.518498
	 R(5,7)           =         2.058310	       1.089211
	 R(6,7)           =         2.062617	       1.091490
	 R(7,10)          =         2.884204	       1.526255
	 R(8,10)          =         2.062617	       1.091490
	 R(9,10)          =         2.058310	       1.089211
	 R(10,14)         =         2.869546	       1.518498
	 R(11,14)         =         2.055299	       1.087617
	 R(12,14)         =         2.052688	       1.086236
	 R(13,14)         =         2.058840	       1.089491
	 B(1,4,2)         =         1.880611	     107.751087
	 B(1,4,3)         =         1.882344	     107.850367
	 B(1,4,7)         =         1.943852	     111.374508
	 B(2,4,3)         =         1.880550	     107.747606
	 B(2,4,7)         =         1.932509	     110.724632
	 B(3,4,7)         =         1.941365	     111.232009
	 B(4,7,5)         =         1.917599	     109.870343
	 B(4,7,6)         =         1.889418	     108.255674
	 B(4,7,10)        =         1.994220	     114.260396
	 B(5,7,6)         =         1.855176	     106.293750
	 B(5,7,10)        =         1.904958	     109.146064
	 B(6,7,10)        =         1.897230	     108.703299
	 B(7,10,8)        =         1.897232	     108.703359
	 B(7,10,9)        =         1.904955	     109.145898
	 B(7,10,14)       =         1.994223	     114.260590
	 B(8,10,9)        =         1.855178	     106.293862
	 B(8,10,14)       =         1.889414	     108.255438
	 B(9,10,14)       =         1.917600	     109.870375
	 B(10,14,11)      =         1.932512	     110.724767
	 B(10,14,12)      =         1.943852	     111.374538
	 B(10,14,13)      =         1.941362	     111.231829
	 B(11,14,12)      =         1.880610	     107.751017
	 B(11,14,13)      =         1.880551	     107.747637
	 B(12,14,13)      =         1.882345	     107.850421
	 D(1,4,7,5)       =        -3.004007	    -172.116948
	 D(1,4,7,6)       =        -0.985006	     -56.436692
	 D(1,4,7,10)      =         1.131511	      64.830810
	 D(2,4,7,5)       =        -0.911763	     -52.240168
	 D(2,4,7,6)       =         1.107238	      63.440088
	 D(2,4,7,10)      =        -3.059430	    -175.292410
	 D(3,4,7,5)       =         1.178764	      67.538218
	 D(3,4,7,6)       =        -3.085420	    -176.781526
	 D(3,4,7,10)      =        -0.968903	     -55.514024
	 D(4,7,10,8)      =         1.406540	      80.588806
	 D(4,7,10,9)      =        -2.860153	    -163.874711
	 D(4,7,10,14)     =        -0.705654	     -40.431005
	 D(5,7,10,8)      =        -0.747958	     -42.854846
	 D(5,7,10,9)      =         1.268534	      72.681637
	 D(5,7,10,14)     =        -2.860152	    -163.874658
	 D(6,7,10,8)      =        -2.764449	    -158.391252
	 D(6,7,10,9)      =        -0.747957	     -42.854769
	 D(6,7,10,14)     =         1.406542	      80.588936
	 D(7,10,14,11)    =        -3.059425	    -175.292145
	 D(7,10,14,12)    =         1.131515	      64.831053
	 D(7,10,14,13)    =        -0.968898	     -55.513748
	 D(8,10,14,11)    =         1.107242	      63.440320
	 D(8,10,14,12)    =        -0.985002	     -56.436482
	 D(8,10,14,13)    =        -3.085415	    -176.781284
	 D(9,10,14,11)    =        -0.911759	     -52.239956
	 D(9,10,14,12)    =        -3.004004	    -172.116758
	 D(9,10,14,13)    =         1.178768	      67.538441

	Current energy   :      -158.1585344291

	Energy change for the previous step:
		Projected    :        -0.0000014333
		Actual       :         0.0000010682

	Performing BFGS update.
	Previous computed or guess Hessian on step 1.
	Steps to be used in Hessian update: 16 15
	Adding user-defined constraint: Fragment 1; Coordinate 49:
		Value =    -0.705654; Fixed value    =    -0.698130
		Force =     0.006772; Force constant =     0.900000
	Removing off-diagonal coupling between coordinate 49 and others.
	Taking RFO optimization step.
	Going to follow RFO solution 1.
	Rejecting RFO root 1 because normalization gives large value.
	Using RFO vector 2.
	Norm of target step-size    0.00173
	Projected energy change by RFO approximation:        -0.0000001759

	Back-transformation to cartesian coordinates...
	Successfully converged to displaced geometry.

	--- Internal Coordinate Step in ANG or DEG, aJ/ANG or AJ/DEG ---
	 ---------------------------------------------------------------------------
	   Coordinate                Previous        Force       Change         New 
	   ----------                --------       ------       ------       ------
	    1 R(1,4)          =      1.086236     0.000108     0.000026     1.086262
	    2 R(2,4)          =      1.087617     0.000007     0.000003     1.087620
	    3 R(3,4)          =      1.089492    -0.000054    -0.000010     1.089481
	    4 R(4,7)          =      1.518498    -0.000097    -0.000038     1.518460
	    5 R(5,7)          =      1.089211     0.000081     0.000023     1.089234
	    6 R(6,7)          =      1.091490    -0.000024    -0.000008     1.091483
	    7 R(7,10)         =      1.526255     0.000010    -0.000003     1.526252
	    8 R(8,10)         =      1.091490    -0.000023    -0.000007     1.091483
	    9 R(9,10)         =      1.089211     0.000081     0.000023     1.089234
	   10 R(10,14)        =      1.518498    -0.000096    -0.000038     1.518461
	   11 R(11,14)        =      1.087617     0.000004     0.000002     1.087620
	   12 R(12,14)        =      1.086236     0.000108     0.000026     1.086262
	   13 R(13,14)        =      1.089491    -0.000052    -0.000010     1.089481
	   14 B(1,4,2)        =    107.751087    -0.000001    -0.002241   107.748846
	   15 B(1,4,3)        =    107.850367    -0.000000     0.000110   107.850477
	   16 B(1,4,7)        =    111.374508     0.000002     0.012843   111.387351
	   17 B(2,4,3)        =    107.747606     0.000001     0.000598   107.748204
	   18 B(2,4,7)        =    110.724632    -0.000000    -0.002831   110.721801
	   19 B(3,4,7)        =    111.232009    -0.000001    -0.008595   111.223413
	   20 B(4,7,5)        =    109.870343     0.000012    -0.000176   109.870167
	   21 B(4,7,6)        =    108.255674    -0.000012    -0.005148   108.250526
	   22 B(4,7,10)       =    114.260396    -0.000000     0.001087   114.261483
	   23 B(5,7,6)        =    106.293750    -0.000000    -0.005617   106.288133
	   24 B(5,7,10)       =    109.146064    -0.000001    -0.001536   109.144528
	   25 B(6,7,10)       =    108.703299     0.000002     0.010994   108.714292
	   26 B(7,10,8)       =    108.703359     0.000002     0.010886   108.714245
	   27 B(7,10,9)       =    109.145898    -0.000001    -0.001263   109.144636
	   28 B(7,10,14)      =    114.260590    -0.000000     0.000791   114.261381
	   29 B(8,10,9)       =    106.293862    -0.000000    -0.005769   106.288093
	   30 B(8,10,14)      =    108.255438    -0.000012    -0.004805   108.250632
	   31 B(9,10,14)      =    109.870375     0.000012    -0.000231   109.870144
	   32 B(10,14,11)     =    110.724767    -0.000000    -0.003069   110.721698
	   33 B(10,14,12)     =    111.374538     0.000002     0.012791   111.387329
	   34 B(10,14,13)     =    111.231829    -0.000001    -0.008315   111.223514
	   35 B(11,14,12)     =    107.751017    -0.000001    -0.002142   107.748874
	   36 B(11,14,13)     =    107.747637     0.000001     0.000564   107.748201
	   37 B(12,14,13)     =    107.850421    -0.000000     0.000055   107.850477
	   38 D(1,4,7,5)      =   -172.116948     0.000001    -0.018302  -172.135250
	   39 D(1,4,7,6)      =    -56.436692     0.000000    -0.027976   -56.464667
	   40 D(1,4,7,10)     =     64.830810    -0.000001    -0.016934    64.813877
	   41 D(2,4,7,5)      =    -52.240168     0.000001    -0.014529   -52.254697
	   42 D(2,4,7,6)      =     63.440088     0.000000    -0.024202    63.415886
	   43 D(2,4,7,10)     =   -175.292410    -0.000001    -0.013160  -175.305571
	   44 D(3,4,7,5)      =     67.538218     0.000001    -0.021313    67.516905
	   45 D(3,4,7,6)      =   -176.781526     0.000000    -0.030986  -176.812512
	   46 D(3,4,7,10)     =    -55.514024    -0.000001    -0.019944   -55.533969
	   47 D(4,7,10,8)     =     80.588806     0.000003     0.006364    80.595170
	   48 D(4,7,10,9)     =   -163.874711     0.000003     0.004771  -163.869939
	   49 D(4,7,10,14)    =    -40.431005     0.000006     0.004062   -40.426944
	   50 D(5,7,10,8)     =    -42.854846    -0.000000     0.007001   -42.847845
	   51 D(5,7,10,9)     =     72.681637    -0.000000     0.005408    72.687045
	   52 D(5,7,10,14)    =   -163.874658     0.000003     0.004699  -163.869959
	   53 D(6,7,10,8)     =   -158.391252    -0.000000     0.008501  -158.382750
	   54 D(6,7,10,9)     =    -42.854769    -0.000000     0.006908   -42.847860
	   55 D(6,7,10,14)    =     80.588936     0.000003     0.006199    80.595136
	   56 D(7,10,14,11)   =   -175.292145    -0.000001    -0.013710  -175.305855
	   57 D(7,10,14,12)   =     64.831053    -0.000001    -0.017413    64.813640
	   58 D(7,10,14,13)   =    -55.513748    -0.000001    -0.020510   -55.534258
	   59 D(8,10,14,11)   =     63.440320     0.000000    -0.024668    63.415652
	   60 D(8,10,14,12)   =    -56.436482     0.000000    -0.028371   -56.464853
	   61 D(8,10,14,13)   =   -176.781284     0.000000    -0.031468  -176.812751
	   62 D(9,10,14,11)   =    -52.239956     0.000001    -0.014975   -52.254931
	   63 D(9,10,14,12)   =   -172.116758     0.000001    -0.018679  -172.135436
	   64 D(9,10,14,13)   =     67.538441     0.000001    -0.021775    67.516666
	 ---------------------------------------------------------------------------
	Successfully symmetrized geometry.
	 Forces used to impose fixed constraints are not included.
	  Forces zeroed: 49 

  ==> Convergence Check <==

  Measures of convergence in internal coordinates in au.
  Criteria marked as inactive (o), active & met (*), and active & unmet ( ).
  ---------------------------------------------------------------------------------------------
   Step     Total Energy     Delta E     MAX Force     RMS Force      MAX Disp      RMS Disp   
  ---------------------------------------------------------------------------------------------
    Convergence Criteria    1.00e-06 *    3.00e-04 *             o    1.20e-03 *             o
  ---------------------------------------------------------------------------------------------
     17    -158.15853443    1.07e-06      1.78e-04 *    6.37e-05 o    5.49e-04 *    2.16e-04 o  ~
  ---------------------------------------------------------------------------------------------


  **** Optimization is complete! (in 17 steps) ****

  ==> Optimization Summary <==

  Measures of convergence in internal coordinates in au.
  --------------------------------------------------------------------------------------------------------------- ~
   Step         Total Energy             Delta E       MAX Force       RMS Force        MAX Disp        RMS Disp  ~
  --------------------------------------------------------------------------------------------------------------- ~
      1    -158.151099460497   -158.151099460497      0.03385476      0.00886421      0.04971443      0.01263509  ~
      2    -158.155793154954     -0.004693694458      0.00914858      0.00373965      0.02546690      0.01252579  ~
      3    -158.157642714392     -0.001849559437      0.00387444      0.00133661      0.03826671      0.01249337  ~
      4    -158.158239469144     -0.000596754752      0.00130581      0.00050198      0.03035671      0.01249443  ~
      5    -158.158438956436     -0.000199487292      0.00041483      0.00017916      0.02595052      0.01250068  ~
      6    -158.158514450902     -0.000075494466      0.00028949      0.00011384      0.02482370      0.01249858  ~
      7    -158.158564358203     -0.000049907301      0.00069917      0.00015694      0.00955745      0.00478826  ~
      8    -158.158565300957     -0.000000942754      0.00061692      0.00013364      0.00135779      0.00039665  ~
      9    -158.158562284718      0.000003016239      0.00065201      0.00014049      0.00334952      0.00165263  ~
     10    -158.158559069846      0.000003214872      0.00058982      0.00012710      0.00326393      0.00097799  ~
     11    -158.158557311619      0.000001758227      0.00066143      0.00014222      0.04082830      0.01249776  ~
     12    -158.158449864429      0.000107447190      0.00075079      0.00029305      0.03312323      0.00997130  ~
     13    -158.158549955593     -0.000100091164      0.00058200      0.00013136      0.01298537      0.00544818  ~
     14    -158.158543987447      0.000005968147      0.00056743      0.00013765      0.00726381      0.00356468  ~
     15    -158.158537899463      0.000006087983      0.00034311      0.00007720      0.00352483      0.00163128  ~
     16    -158.158535497362      0.000002402101      0.00031200      0.00006815      0.00169263      0.00082591  ~
     17    -158.158534429125      0.000001068237      0.00036229      0.00007815      0.00054922      0.00021612  ~
  --------------------------------------------------------------------------------------------------------------- ~

	Writing optimization data to binary file.
	Final energy is   -158.1585344291254
	Final (previous) structure:
	Cartesian Geometry (in Angstrom)
	    H     0.7545008828   1.5115999787   0.7889041050
	    H    -0.8263833627   2.2617565831   0.9347459288
	    H    -0.4834523880   0.7634211708   1.7889679978
	    C    -0.3099269613   1.3074195609   0.8610958890
	    H    -1.8915902972   0.4489683877  -0.3127703189
	    H    -0.5563237535   1.0801091153  -1.2420470462
	    C    -0.8049962085   0.5197133744  -0.3390135971
	    H    -0.7577402054  -1.5482098823   0.2183587618
	    H    -0.3870379107  -1.2606666806  -1.4623355182
	    C    -0.2146997332  -0.8829518396  -0.4553542693
	    H     1.6425213806  -1.9710299737  -0.2989595286
	    H     1.4459529882  -0.7277521366   0.9253033167
	    H     1.8471181037  -0.2776483797  -0.7266356524
	    C     1.2634788895  -0.9677430525  -0.1182557688
	Saving final (previous) structure.
			--------------------------
			 OPTKING Finished Execution 
			--------------------------

    Final optimized geometry and variables:
    Molecular point group: c1
    Full point group: C1

    Geometry (in Angstrom), charge = 0, multiplicity = 1:

    H            0.754500882833     1.511599978672     0.788904105034
    H           -0.826383362738     2.261756583130     0.934745928756
    H           -0.483452388035     0.763421170797     1.788967997792
    C           -0.309926961342     1.307419560948     0.861095888976
    H           -1.891590297186     0.448968387693    -0.312770318857
    H           -0.556323753522     1.080109115323    -1.242047046239
    C           -0.804996208486     0.519713374360    -0.339013597079
    H           -0.757740205441    -1.548209882336     0.218358761841
    H           -0.387037910741    -1.260666680605    -1.462335518196
    C           -0.214699733237    -0.882951839617    -0.455354269275
    H            1.642521380623    -1.971029973730    -0.298959528625
    H            1.445952988166    -0.727752136576     0.925303316749
    H            1.847118103738    -0.277648379659    -0.726635652434
    C            1.263478889523    -0.967743052461    -0.118255768768

	Cleaning optimization helper files.

*** Psi4 exiting successfully. Buy a developer a beer!
