
    -----------------------------------------------------------------------
          Psi4: An Open-Source Ab Initio Electronic Structure Package
                               Psi4 1.1 release

                         Git: Rev {HEAD} add49b9 


    R. M. Parrish, L. A. Burns, D. G. A. Smith, A. C. Simmonett,
    A. E. DePrince III, E. G. Hohenstein, U. Bozkaya, A. Yu. Sokolov,
    R. Di Remigio, R. M. Richard, J. F. Gonthier, A. M. James,
    H. R. McAlexander, A. Kumar, M. Saitow, X. Wang, B. P. Pritchard,
    P. Verma, H. F. Schaefer III, K. Patkowski, R. A. King, E. F. Valeev,
    F. A. Evangelista, J. M. Turney, T. D. Crawford, and C. D. Sherrill,
    J. Chem. Theory Comput. in press (2017).
    (doi: 10.1021/acs.jctc.7b00174)

    -----------------------------------------------------------------------


    Psi4 started on: Wednesday, 14 June 2017 02:54PM

    Process ID:  32596
    PSIDATADIR: /cbio/jclab/home/chayas/anaconda/envs/py35/share/psi4
    Memory:     500.0 MiB
    Threads:    1
    
  ==> Input File <==

--------------------------------------------------------------------------

memory 1000 mb

molecule butane {
  symmetry C1
  0 1 
  H      1.604   0.760   -8.260
  H      1.745   2.388   -8.880
  H      2.043   1.024   -9.930
  C      2.142   1.395   -8.932
  H      4.169   2.051   -9.210
  H      3.731   1.788   -7.539
  C      3.631   1.416   -8.537
  H      3.665   -0.647   -7.940
  H      4.104   -0.384   -9.610
  C      4.203   -0.012   -8.612
  H      6.117   0.953   -8.485
  H      6.208   -0.774   -8.733
  H      5.783   -0.138   -7.162
  C      5.691   0.009   -8.218
  units Angstrom
}

dih_string = "7 10 14 13 90"
set optking fixed_dihedral = $dih_string

optimize('MP2/aug-cc-pvtz')
--------------------------------------------------------------------------

  Memory set to 953.674 MiB by Python driver.
gradient() will perform analytic gradient computation.

*** tstart() called on cpu-6-2.local
*** at Wed Jun 14 14:54:29 2017

    SCF Algorithm Type (re)set to DF.

*** tstart() called on cpu-6-2.local
*** at Wed Jun 14 14:54:29 2017

   => Loading Basis Set <=

    Name: AUG-CC-PVTZ
    Role: ORBITAL
    Keyword: BASIS
    atoms 1-3, 5-6, 8-9, 11-13 entry H          line    34 file /cbio/jclab/home/chayas/anaconda/envs/py35/share/psi4/basis/aug-cc-pvtz.gbs 
    atoms 4, 7, 10, 14         entry C          line   221 file /cbio/jclab/home/chayas/anaconda/envs/py35/share/psi4/basis/aug-cc-pvtz.gbs 


         ---------------------------------------------------------
                                   SCF
            by Justin Turney, Rob Parrish, and Andy Simmonett
                              RHF Reference
                        1 Threads,    953 MiB Core
         ---------------------------------------------------------

  ==> Geometry <==

    Molecular point group: c1
    Full point group: C1

    Geometry (in Angstrom), charge = 0, multiplicity = 1:

       Center              X                  Y                   Z               Mass       
    ------------   -----------------  -----------------  -----------------  -----------------
           H         -2.312776029323     0.057982647118     0.314776029323     1.007825032070
           H         -2.171776029323     1.685982647118    -0.305223970677     1.007825032070
           H         -1.873776029323     0.321982647118    -1.355223970677     1.007825032070
           C         -1.774776029323     0.692982647118    -0.357223970677    12.000000000000
           H          0.252223970677     1.348982647118    -0.635223970677     1.007825032070
           H         -0.185776029323     1.085982647118     1.035776029323     1.007825032070
           C         -0.285776029323     0.713982647118     0.037776029323    12.000000000000
           H         -0.251776029323    -1.349017352882     0.634776029323     1.007825032070
           H          0.187223970677    -1.086017352882    -1.035223970677     1.007825032070
           C          0.286223970677    -0.714017352882    -0.037223970677    12.000000000000
           H          2.200223970677     0.250982647118     0.089776029323     1.007825032070
           H          2.291223970677    -1.476017352882    -0.158223970677     1.007825032070
           H          1.866223970677    -0.840017352882     1.412776029323     1.007825032070
           C          1.774223970677    -0.693017352882     0.356776029323    12.000000000000

  Running in c1 symmetry.

  Rotational constants: A =      0.76951  B =      0.12464  C =      0.11638 [cm^-1]
  Rotational constants: A =  23069.42279  B =   3736.71890  C =   3488.98337 [MHz]
  Nuclear repulsion =  131.835500009865967

  Charge       = 0
  Multiplicity = 1
  Electrons    = 34
  Nalpha       = 17
  Nbeta        = 17

  ==> Algorithm <==

  SCF Algorithm Type is DF.
  DIIS enabled.
  MOM disabled.
  Fractional occupation disabled.
  Guess Type is SAD.
  Energy threshold   = 1.00e-10
  Density threshold  = 1.00e-10
  Integral threshold = 0.00e+00

  ==> Primary Basis <==

  Basis Set: AUG-CC-PVTZ
    Blend: AUG-CC-PVTZ
    Number of shells: 146
    Number of basis function: 414
    Number of Cartesian functions: 470
    Spherical Harmonics?: true
    Max angular momentum: 3

   => Loading Basis Set <=

    Name: (AUG-CC-PVTZ AUX)
    Role: JKFIT
    Keyword: DF_BASIS_SCF
    atoms 1-3, 5-6, 8-9, 11-13 entry H          line    69 file /cbio/jclab/home/chayas/anaconda/envs/py35/share/psi4/basis/aug-cc-pvtz-jkfit.gbs 
    atoms 4, 7, 10, 14         entry C          line   161 file /cbio/jclab/home/chayas/anaconda/envs/py35/share/psi4/basis/aug-cc-pvtz-jkfit.gbs 

  ==> Pre-Iterations <==

   -------------------------------------------------------
    Irrep   Nso     Nmo     Nalpha   Nbeta   Ndocc  Nsocc
   -------------------------------------------------------
     A        414     414       0       0       0       0
   -------------------------------------------------------
    Total     414     414      17      17      17       0
   -------------------------------------------------------

  ==> Integral Setup <==

  ==> DFJK: Density-Fitted J/K Matrices <==

    J tasked:                  Yes
    K tasked:                  Yes
    wK tasked:                  No
    OpenMP threads:              1
    Integrals threads:           1
    Memory (MB):               715
    Algorithm:                Core
    Integral Cache:           NONE
    Schwarz Cutoff:          1E-12
    Fitting Condition:       1E-12

   => Auxiliary Basis Set <=

  Basis Set: (AUG-CC-PVTZ AUX)
    Blend: AUG-CC-PVTZ-JKFIT
    Number of shells: 260
    Number of basis function: 876
    Number of Cartesian functions: 1074
    Spherical Harmonics?: true
    Max angular momentum: 4

  Minimum eigenvalue in the overlap matrix is 8.5609597873E-06.
  Using Symmetric Orthogonalization.

  SCF Guess: Superposition of Atomic Densities via on-the-fly atomic UHF.

  ==> Iterations <==

                           Total Energy        Delta E     RMS |[F,P]|

   @DF-RHF iter   0:  -159.14812586371625   -1.59148e+02   9.76342e-03 
   @DF-RHF iter   1:  -157.26107292958991    1.88705e+00   7.68254e-04 
   @DF-RHF iter   2:  -157.34068720587544   -7.96143e-02   2.27104e-04 DIIS
   @DF-RHF iter   3:  -157.34934554868332   -8.65834e-03   6.93155e-05 DIIS
   @DF-RHF iter   4:  -157.34996078296942   -6.15234e-04   1.68356e-05 DIIS
   @DF-RHF iter   5:  -157.35000842292754   -4.76400e-05   3.42864e-06 DIIS
   @DF-RHF iter   6:  -157.35001034029179   -1.91736e-06   7.70388e-07 DIIS
   @DF-RHF iter   7:  -157.35001044190133   -1.01610e-07   2.11426e-07 DIIS
   @DF-RHF iter   8:  -157.35001044869645   -6.79512e-09   4.18889e-08 DIIS
   @DF-RHF iter   9:  -157.35001044908472   -3.88269e-10   1.07134e-08 DIIS
   @DF-RHF iter  10:  -157.35001044911127   -2.65459e-11   2.69172e-09 DIIS
   @DF-RHF iter  11:  -157.35001044911431   -3.04112e-12   6.90093e-10 DIIS
   @DF-RHF iter  12:  -157.35001044911468   -3.69482e-13   1.99380e-10 DIIS
   @DF-RHF iter  13:  -157.35001044911235    2.33058e-12   4.56748e-11 DIIS

  ==> Post-Iterations <==

    Orbital Energies (a.u.)
    -----------------------

    Doubly Occupied:                                                      

       1A    -11.207268     2A    -11.205898     3A    -11.198539  
       4A    -11.197763     5A     -1.070722     6A     -0.981042  
       7A     -0.861342     8A     -0.795247     9A     -0.646992  
      10A     -0.587514    11A     -0.576379    12A     -0.571169  
      13A     -0.513199    14A     -0.503991    15A     -0.474087  
      16A     -0.468786    17A     -0.441050  

    Virtual:                                                              

      18A      0.032303    19A      0.037461    20A      0.039433  
      21A      0.040609    22A      0.057682    23A      0.058555  
      24A      0.060007    25A      0.060931    26A      0.080249  
      27A      0.082825    28A      0.100551    29A      0.112606  
      30A      0.122955    31A      0.130609    32A      0.137203  
      33A      0.142123    34A      0.142671    35A      0.145912  
      36A      0.148322    37A      0.160213    38A      0.163775  
      39A      0.166567    40A      0.171483    41A      0.201567  
      42A      0.205504    43A      0.212819    44A      0.228866  
      45A      0.244210    46A      0.249834    47A      0.253616  
      48A      0.268732    49A      0.278318    50A      0.283191  
      51A      0.286725    52A      0.313680    53A      0.318375  
      54A      0.330024    55A      0.337585    56A      0.345228  
      57A      0.354559    58A      0.358207    59A      0.358414  
      60A      0.365494    61A      0.372443    62A      0.373196  
      63A      0.381403    64A      0.386596    65A      0.390471  
      66A      0.391230    67A      0.398055    68A      0.401786  
      69A      0.405948    70A      0.412035    71A      0.419218  
      72A      0.429998    73A      0.443506    74A      0.449273  
      75A      0.451996    76A      0.461920    77A      0.462168  
      78A      0.464841    79A      0.472908    80A      0.485419  
      81A      0.488343    82A      0.496965    83A      0.501744  
      84A      0.505738    85A      0.514122    86A      0.515807  
      87A      0.519557    88A      0.532120    89A      0.536911  
      90A      0.542693    91A      0.548535    92A      0.555690  
      93A      0.569378    94A      0.572627    95A      0.581031  
      96A      0.590636    97A      0.607551    98A      0.609518  
      99A      0.612004   100A      0.633864   101A      0.640522  
     102A      0.659972   103A      0.678299   104A      0.682314  
     105A      0.698370   106A      0.719469   107A      0.760741  
     108A      0.776892   109A      0.799059   110A      0.812269  
     111A      0.820585   112A      0.828199   113A      0.835812  
     114A      0.846151   115A      0.848025   116A      0.860581  
     117A      0.867513   118A      0.875290   119A      0.881429  
     120A      0.889645   121A      0.895774   122A      0.903425  
     123A      0.910428   124A      0.922247   125A      0.926833  
     126A      0.931081   127A      0.933835   128A      0.937413  
     129A      0.946210   130A      0.962526   131A      0.963314  
     132A      0.973866   133A      0.979396   134A      0.987725  
     135A      0.994983   136A      1.017505   137A      1.026384  
     138A      1.032796   139A      1.047478   140A      1.068488  
     141A      1.081547   142A      1.084421   143A      1.089748  
     144A      1.106213   145A      1.111538   146A      1.117809  
     147A      1.126483   148A      1.135423   149A      1.148809  
     150A      1.155410   151A      1.159036   152A      1.173327  
     153A      1.179718   154A      1.190356   155A      1.200145  
     156A      1.218757   157A      1.226837   158A      1.234161  
     159A      1.243060   160A      1.250312   161A      1.262271  
     162A      1.268645   163A      1.274953   164A      1.281408  
     165A      1.298156   166A      1.304946   167A      1.317656  
     168A      1.325893   169A      1.339218   170A      1.358614  
     171A      1.370477   172A      1.388700   173A      1.407201  
     174A      1.416884   175A      1.431705   176A      1.445607  
     177A      1.461591   178A      1.481015   179A      1.501010  
     180A      1.510981   181A      1.521796   182A      1.524528  
     183A      1.538491   184A      1.555961   185A      1.569295  
     186A      1.584877   187A      1.598562   188A      1.611877  
     189A      1.636627   190A      1.643171   191A      1.652506  
     192A      1.661390   193A      1.674249   194A      1.694179  
     195A      1.695735   196A      1.700462   197A      1.713043  
     198A      1.719605   199A      1.731292   200A      1.741811  
     201A      1.745385   202A      1.759427   203A      1.765838  
     204A      1.772575   205A      1.780718   206A      1.787054  
     207A      1.799489   208A      1.808627   209A      1.822026  
     210A      1.857508   211A      1.870404   212A      1.873743  
     213A      1.891317   214A      1.904645   215A      1.917387  
     216A      1.929622   217A      1.962388   218A      1.970702  
     219A      1.992009   220A      2.000112   221A      2.002246  
     222A      2.017705   223A      2.030645   224A      2.042025  
     225A      2.047275   226A      2.063137   227A      2.086796  
     228A      2.092781   229A      2.108870   230A      2.159804  
     231A      2.169596   232A      2.193435   233A      2.198517  
     234A      2.204122   235A      2.233621   236A      2.260593  
     237A      2.266873   238A      2.285201   239A      2.292966  
     240A      2.309646   241A      2.331826   242A      2.339317  
     243A      2.341120   244A      2.364833   245A      2.368022  
     246A      2.378149   247A      2.413218   248A      2.445087  
     249A      2.462587   250A      2.480963   251A      2.498027  
     252A      2.551640   253A      2.602555   254A      2.612831  
     255A      2.628533   256A      2.667235   257A      2.756242  
     258A      2.888983   259A      2.950517   260A      3.015142  
     261A      3.224645   262A      3.247105   263A      3.310818  
     264A      3.360257   265A      3.393114   266A      3.424543  
     267A      3.444876   268A      3.461893   269A      3.465081  
     270A      3.486943   271A      3.528829   272A      3.556586  
     273A      3.564753   274A      3.576700   275A      3.597962  
     276A      3.605768   277A      3.629657   278A      3.668573  
     279A      3.684530   280A      3.695627   281A      3.702472  
     282A      3.712226   283A      3.738834   284A      3.742723  
     285A      3.760084   286A      3.775025   287A      3.779980  
     288A      3.798522   289A      3.822834   290A      3.830357  
     291A      3.845732   292A      3.868627   293A      3.877693  
     294A      3.887100   295A      3.912664   296A      3.923969  
     297A      3.953624   298A      3.971976   299A      3.977091  
     300A      3.989364   301A      4.010569   302A      4.016761  
     303A      4.026617   304A      4.028027   305A      4.051772  
     306A      4.062021   307A      4.077234   308A      4.089370  
     309A      4.135966   310A      4.169897   311A      4.190924  
     312A      4.202562   313A      4.231619   314A      4.245104  
     315A      4.251420   316A      4.273867   317A      4.286121  
     318A      4.295850   319A      4.321106   320A      4.328242  
     321A      4.343027   322A      4.379076   323A      4.383795  
     324A      4.412735   325A      4.443740   326A      4.454500  
     327A      4.521023   328A      4.545550   329A      4.571358  
     330A      4.590078   331A      4.619274   332A      4.664212  
     333A      4.676506   334A      4.692287   335A      4.714912  
     336A      4.732487   337A      4.742868   338A      4.750950  
     339A      4.774111   340A      4.789013   341A      4.809693  
     342A      4.866971   343A      4.869688   344A      4.886963  
     345A      4.893268   346A      4.934017   347A      4.948329  
     348A      4.960745   349A      4.982748   350A      5.009439  
     351A      5.042127   352A      5.065044   353A      5.083098  
     354A      5.100953   355A      5.135494   356A      5.161128  
     357A      5.172928   358A      5.191638   359A      5.221925  
     360A      5.235412   361A      5.252685   362A      5.274468  
     363A      5.284070   364A      5.311629   365A      5.333241  
     366A      5.334795   367A      5.390049   368A      5.391536  
     369A      5.436960   370A      5.457057   371A      5.462778  
     372A      5.467318   373A      5.500660   374A      5.528104  
     375A      5.584501   376A      5.605401   377A      5.609598  
     378A      5.661637   379A      5.673834   380A      5.680056  
     381A      5.701871   382A      5.757286   383A      5.762552  
     384A      5.793291   385A      5.814945   386A      5.857190  
     387A      5.899790   388A      5.926100   389A      5.966716  
     390A      6.021755   391A      6.124207   392A      6.151638  
     393A      6.173657   394A      6.212764   395A      6.229345  
     396A      6.266068   397A      6.268781   398A      6.328247  
     399A      6.332636   400A      6.362661   401A      6.393536  
     402A      6.461844   403A      6.560342   404A      6.595641  
     405A      6.745824   406A      6.783929   407A      6.833903  
     408A      6.855630   409A      6.858785   410A      6.983096  
     411A     18.122419   412A     18.330269   413A     18.852435  
     414A     19.205352  

    Final Occupation by Irrep:
              A 
    DOCC [    17 ]

  Energy converged.

  @DF-RHF Final Energy:  -157.35001044911235

   => Energetics <=

    Nuclear Repulsion Energy =            131.8355000098659673
    One-Electron Energy =                -471.7690461203485484
    Two-Electron Energy =                 182.5835356613702061
    DFT Exchange-Correlation Energy =       0.0000000000000000
    Empirical Dispersion Energy =           0.0000000000000000
    PCM Polarization Energy =               0.0000000000000000
    EFP Energy =                            0.0000000000000000
    Total Energy =                       -157.3500104491123466



Properties will be evaluated at   0.000000,   0.000000,   0.000000 Bohr

Properties computed using the SCF density matrix

  Nuclear Dipole Moment: (a.u.)
     X:     0.0012      Y:     0.0008      Z:    -0.0012

  Electronic Dipole Moment: (a.u.)
     X:    -0.0020      Y:    -0.0015      Z:     0.0025

  Dipole Moment: (a.u.)
     X:    -0.0008      Y:    -0.0008      Z:     0.0013     Total:     0.0017

  Dipole Moment: (Debye)
     X:    -0.0020      Y:    -0.0020      Z:     0.0034     Total:     0.0044


*** tstop() called on cpu-6-2.local at Wed Jun 14 14:55:38 2017
Module time:
	user time   =      66.66 seconds =       1.11 minutes
	system time =       0.54 seconds =       0.01 minutes
	total time  =         69 seconds =       1.15 minutes
Total time:
	user time   =      66.67 seconds =       1.11 minutes
	system time =       0.54 seconds =       0.01 minutes
	total time  =         69 seconds =       1.15 minutes

  //>>>>>>>>>>>>>>>>>>>>>>>>>>>>>>>>>>>//
  //               DFMP2               //
  //<<<<<<<<<<<<<<<<<<<<<<<<<<<<<<<<<<<//

   => Loading Basis Set <=

    Name: (AUG-CC-PVTZ AUX)
    Role: RIFIT
    Keyword: DF_BASIS_MP2
    atoms 1-3, 5-6, 8-9, 11-13 entry H          line    29 file /cbio/jclab/home/chayas/anaconda/envs/py35/share/psi4/basis/aug-cc-pvtz-ri.gbs 
    atoms 4, 7, 10, 14         entry C          line   147 file /cbio/jclab/home/chayas/anaconda/envs/py35/share/psi4/basis/aug-cc-pvtz-ri.gbs 

	 --------------------------------------------------------
	                          DF-MP2                         
	      2nd-Order Density-Fitted Moller-Plesset Theory     
	              RMP2 Wavefunction,   1 Threads             
	                                                         
	        Rob Parrish, Justin Turney, Andy Simmonett,      
	           Ed Hohenstein, and C. David Sherrill          
	 --------------------------------------------------------

   => Auxiliary Basis Set <=

  Basis Set: (AUG-CC-PVTZ AUX)
    Blend: AUG-CC-PVTZ-RI
    Number of shells: 252
    Number of basis function: 884
    Number of Cartesian functions: 1094
    Spherical Harmonics?: true
    Max angular momentum: 4

	 --------------------------------------------------------
	                 NBF =   414, NAUX =   884
	 --------------------------------------------------------
	   CLASS    FOCC     OCC    AOCC    AVIR     VIR    FVIR
	   PAIRS       0      17      17     397     397       0
	 --------------------------------------------------------


         ------------------------------------------------------------
                                     CPHF                           
                                  Rob Parrish                       
         ------------------------------------------------------------

  ==> Geometry <==

    Molecular point group: c1
    Full point group: C1

    Geometry (in Angstrom), charge = 0, multiplicity = 1:

       Center              X                  Y                   Z               Mass       
    ------------   -----------------  -----------------  -----------------  -----------------
           H         -2.312776029323     0.057982647118     0.314776029323     1.007825032070
           H         -2.171776029323     1.685982647118    -0.305223970677     1.007825032070
           H         -1.873776029323     0.321982647118    -1.355223970677     1.007825032070
           C         -1.774776029323     0.692982647118    -0.357223970677    12.000000000000
           H          0.252223970677     1.348982647118    -0.635223970677     1.007825032070
           H         -0.185776029323     1.085982647118     1.035776029323     1.007825032070
           C         -0.285776029323     0.713982647118     0.037776029323    12.000000000000
           H         -0.251776029323    -1.349017352882     0.634776029323     1.007825032070
           H          0.187223970677    -1.086017352882    -1.035223970677     1.007825032070
           C          0.286223970677    -0.714017352882    -0.037223970677    12.000000000000
           H          2.200223970677     0.250982647118     0.089776029323     1.007825032070
           H          2.291223970677    -1.476017352882    -0.158223970677     1.007825032070
           H          1.866223970677    -0.840017352882     1.412776029323     1.007825032070
           C          1.774223970677    -0.693017352882     0.356776029323    12.000000000000

  Nuclear repulsion =  131.835500009865967
  Reference energy  = -157.350010449112347

  ==> Basis Set <==

  Basis Set: AUG-CC-PVTZ
    Blend: AUG-CC-PVTZ
    Number of shells: 146
    Number of basis function: 414
    Number of Cartesian functions: 470
    Spherical Harmonics?: true
    Max angular momentum: 3

  ==> CGRSolver (by Rob Parrish) <==

   Number of roots    =         1
   Preconditioning    =    JACOBI
   Convergence cutoff =     1E-06
   Maximum iterations =       100

  ==> CPHFRHamiltonian (by Rob Parrish) <== 

  ==> DFJK: Density-Fitted J/K Matrices <==

    J tasked:                  Yes
    K tasked:                  Yes
    wK tasked:                  No
    OpenMP threads:              1
    Integrals threads:           1
    Memory (MB):               715
    Algorithm:                Core
    Integral Cache:           NONE
    Schwarz Cutoff:          1E-12
    Fitting Condition:       1E-12

   => Auxiliary Basis Set <=

  Basis Set: (AUG-CC-PVTZ AUX)
    Blend: AUG-CC-PVTZ-JKFIT
    Number of shells: 260
    Number of basis function: 876
    Number of Cartesian functions: 1074
    Spherical Harmonics?: true
    Max angular momentum: 4

  ==> CPHF Iterations <==

  => Iterations <=

             Iter  Converged  Remaining    Residual
  CGR           1          0          1   8.165E-02
  CGR           2          0          1   1.309E-02
  CGR           3          0          1   3.417E-03
  CGR           4          0          1   8.061E-04
  CGR           5          0          1   1.189E-04
  CGR           6          0          1   2.155E-05
  CGR           7          0          1   3.932E-06
  CGR           8          1          0   9.632E-07

    CGRSolver converged.

  ==> DFCorrGrad: Density-Fitted Correlated Gradients <==

    OpenMP threads:              1
    Integrals threads:           1
    Memory (MB):               715
    Schwarz Cutoff:          0E+00
    Fitting Condition:       1E-12

   => Auxiliary Basis Set <=

  Basis Set: (AUG-CC-PVTZ AUX)
    Blend: AUG-CC-PVTZ-JKFIT
    Number of shells: 260
    Number of basis function: 876
    Number of Cartesian functions: 1074
    Spherical Harmonics?: true
    Max angular momentum: 4

	-----------------------------------------------------------
	 ==================> DF-MP2 Energies <==================== 
	-----------------------------------------------------------
	 Reference Energy          =    -157.3500104491123466 [Eh]
	 Singles Energy            =      -0.0000000000000000 [Eh]
	 Same-Spin Energy          =      -0.1654333008661100 [Eh]
	 Opposite-Spin Energy      =      -0.6391180956533488 [Eh]
	 Correlation Energy        =      -0.8045513965194587 [Eh]
	 Total Energy              =    -158.1545618456318039 [Eh]
	-----------------------------------------------------------
	 ================> DF-SCS-MP2 Energies <================== 
	-----------------------------------------------------------
	 SCS Same-Spin Scale       =       0.3333333333333333 [-]
	 SCS Opposite-Spin Scale   =       1.2000000000000000 [-]
	 SCS Same-Spin Energy      =      -0.0551444336220367 [Eh]
	 SCS Opposite-Spin Energy  =      -0.7669417147840185 [Eh]
	 SCS Correlation Energy    =      -0.8220861484060552 [Eh]
	 SCS Total Energy          =    -158.1720965975183901 [Eh]
	-----------------------------------------------------------


  -Total Gradient:
     Atom            X                  Y                   Z
    ------   -----------------  -----------------  -----------------
       1        0.007957250887     0.006731315386    -0.006308808090
       2        0.008190080301    -0.009401282234     0.000618459550
       3        0.003172470265     0.004222135713     0.011237849945
       4       -0.025069717472    -0.007135640631    -0.008391702216
       5       -0.007809872522    -0.007679141944     0.006131762805
       6       -0.003402776170    -0.005850775045    -0.011671689092
       7        0.023556744910     0.031355255047     0.010308604771
       8        0.008389709262     0.008715153597    -0.005083914273
       9        0.004098722177     0.004493184312     0.011525027733
      10       -0.019174862586    -0.030862953629    -0.008822297643
      11       -0.007528315762    -0.009232239274     0.002813798300
      12       -0.009507561079     0.007902976824     0.002342706612
      13       -0.004494290423     0.000019965644    -0.010962409408
      14        0.021622418209     0.006722046236     0.006262611004


*** tstop() called on cpu-6-2.local at Wed Jun 14 14:59:36 2017
Module time:
	user time   =     302.63 seconds =       5.04 minutes
	system time =       3.27 seconds =       0.05 minutes
	total time  =        307 seconds =       5.12 minutes
Total time:
	user time   =     302.64 seconds =       5.04 minutes
	system time =       3.27 seconds =       0.05 minutes
	total time  =        307 seconds =       5.12 minutes

			-----------------------------------------
			 OPTKING 2.0: for geometry optimizations 
			  - R.A. King,  Bethel University        
			-----------------------------------------

	Internal coordinates to be generated automatically.
	Detected frag 1 with atoms:  1 2 3 4 5 6 7 8 9 10 11 12 13 14
	---Fragment 1 Bond Connectivity---
	 1 : 4
	 2 : 4
	 3 : 4
	 4 : 1 2 3 7
	 5 : 7
	 6 : 7
	 7 : 4 5 6 10
	 8 : 10
	 9 : 10
	 10 : 7 8 9 14
	 11 : 14
	 12 : 14
	 13 : 14
	 14 : 10 11 12 13

	Assuming in current code that numbering for constraints corresponds to unified fragment.
	Fixed dihedral atom list: 
	     7    10    14    13
	---Fragment 1 Geometry and Gradient---
	 H          -4.3705133021        0.1095713235        0.5948404886
	 H          -4.1040619174        3.1860454679       -0.5767897138
	 H          -3.5409235298        0.6084590226       -2.5610021533
	 C          -3.3538406426        1.3095474179       -0.6750554727
	 H           0.4766342287        2.5492077611       -1.2003993376
	 H          -0.3510658175        2.0522097881        1.9573330304
	 C          -0.5400384308        1.3492316667        0.0713863498
	 H          -0.4757877422       -2.5492733455        1.1995528511
	 H           0.3538020301       -2.0522753725       -1.9562897908
	 C           0.5408849172       -1.3492972511       -0.0703431102
	 H           4.1578207356        0.4742884672        0.1696521087
	 H           4.3297858137       -2.7892685643       -0.2989999722
	 H           3.5266522072       -1.5874027438        2.6697597825
	 C           3.3527974030       -1.3096130023        0.6742089862
	             0.0079572509        0.0067313154       -0.0063088081
	             0.0081900803       -0.0094012822        0.0006184595
	             0.0031724703        0.0042221357        0.0112378499
	            -0.0250697175       -0.0071356406       -0.0083917022
	            -0.0078098725       -0.0076791419        0.0061317628
	            -0.0034027762       -0.0058507750       -0.0116716891
	             0.0235567449        0.0313552550        0.0103086048
	             0.0083897093        0.0087151536       -0.0050839143
	             0.0040987222        0.0044931843        0.0115250277
	            -0.0191748626       -0.0308629536       -0.0088222976
	            -0.0075283158       -0.0092322393        0.0028137983
	            -0.0095075611        0.0079029768        0.0023427066
	            -0.0044942904        0.0000199656       -0.0109624094
	             0.0216224182        0.0067220462        0.0062626110

	Previous optimization step data not found.  Starting new optimization.

	---Fragment 1 Intrafragment Coordinates---
	 - Coordinate -           - BOHR/RAD -       - ANG/DEG -
	 R(1,4)           =         2.021436	       1.069698
	 R(2,4)           =         2.023298	       1.070683
	 R(3,4)           =         2.020723	       1.069320
	 R(4,7)           =         2.911397	       1.540645
	 R(5,7)           =         2.022623	       1.070326
	 R(6,7)           =         2.021555	       1.069761
	 R(7,10)          =         2.910419	       1.540128
	 R(8,10)          =         2.021436	       1.069698
	 R(9,10)          =         2.021379	       1.069668
	 R(10,14)         =         2.909087	       1.539422
	 R(11,14)         =         2.021125	       1.069533
	 R(12,14)         =         2.022628	       1.070328
	 R(13,14)         =         2.022280	       1.070144
	 B(1,4,2)         =         1.910870	     109.484805
	 B(1,4,3)         =         1.911121	     109.499161
	 B(1,4,7)         =         1.910399	     109.457783
	 B(2,4,3)         =         1.910042	     109.437340
	 B(2,4,7)         =         1.910564	     109.467262
	 B(3,4,7)         =         1.910803	     109.480971
	 B(4,7,5)         =         1.909937	     109.431343
	 B(4,7,6)         =         1.911630	     109.528316
	 B(4,7,10)        =         1.911154	     109.501062
	 B(5,7,6)         =         1.910605	     109.469614
	 B(5,7,10)        =         1.910047	     109.437654
	 B(6,7,10)        =         1.910425	     109.459295
	 B(7,10,8)        =         1.910303	     109.452301
	 B(7,10,9)        =         1.910824	     109.482155
	 B(7,10,14)       =         1.911213	     109.504437
	 B(8,10,9)        =         1.910417	     109.458846
	 B(8,10,14)       =         1.910766	     109.478806
	 B(9,10,14)       =         1.910276	     109.450772
	 B(10,14,11)      =         1.910435	     109.459889
	 B(10,14,12)      =         1.911093	     109.497551
	 B(10,14,13)      =         1.911109	     109.498458
	 B(11,14,12)      =         1.910467	     109.461724
	 B(11,14,13)      =         1.910642	     109.471737
	 B(12,14,13)      =         1.910053	     109.437958
	 D(1,4,7,5)       =         3.140997	     179.965873
	 D(1,4,7,6)       =        -1.047644	     -60.025575
	 D(1,4,7,10)      =         1.047427	      60.013132
	 D(2,4,7,5)       =        -1.047689	     -60.028143
	 D(2,4,7,6)       =         1.046856	      59.980409
	 D(2,4,7,10)      =        -3.141259	    -179.980883
	 D(3,4,7,5)       =         1.046044	      59.933911
	 D(3,4,7,6)       =         3.140588	     179.942463
	 D(3,4,7,10)      =        -1.047526	     -60.018830
	 D(4,7,10,8)      =        -1.047368	     -60.009777
	 D(4,7,10,9)      =         1.046677	      59.970178
	 D(4,7,10,14)     =         3.141107	     179.972182
	 D(5,7,10,8)      =        -3.140871	    -179.958653
	 D(5,7,10,9)      =        -1.046826	     -59.978698
	 D(5,7,10,14)     =         1.047604	      60.023306
	 D(6,7,10,8)      =         1.048439	      60.071149
	 D(6,7,10,9)      =        -3.140701	    -179.948896
	 D(6,7,10,14)     =        -1.046271	     -59.946893
	 D(7,10,14,11)    =        -0.524009	     -30.023503
	 D(7,10,14,12)    =        -2.618361	    -150.021054
	 D(7,10,14,13)    =         1.570567	      89.986869
	 D(8,10,14,11)    =        -2.618436	    -150.025325
	 D(8,10,14,12)    =         1.570397	      89.977124
	 D(8,10,14,13)    =        -0.523860	     -30.014953
	 D(9,10,14,11)    =         1.570756	      89.997705
	 D(9,10,14,12)    =        -0.523596	     -29.999846
	 D(9,10,14,13)    =        -2.617853	    -149.991924

	Current energy   :      -158.1545618456

	Generating empirical Hessian (Schlegel '84) for each fragment.
	Adding user-defined constraint: Fragment 1; Coordinate 58:
		Value =     1.570567; Fixed value    =     1.570796
		Force =     0.000115; Force constant =     0.500000
	Removing off-diagonal coupling between coordinate 58 and others.
	Taking RFO optimization step.
	Going to follow RFO solution 1.
	Using RFO vector 1.

	Determining step-restricting scale parameter for RS-RFO.
	Maximum step size allowed    0.10000

	 Iter      |step|        alpha        rfo_root  
	------------------------------------------------
	    0     0.20533       1.00000           1
	    1     0.16051       5.19025           1
	    2     0.12635      15.66783           1
	    3     0.10744      28.88035           1
	    4     0.10084      35.94110           1
	    5     0.10001      36.95247           1
	    6     0.10000      36.96821           1
	------------------------------------------------
	Norm of target step-size    0.10000
	Projected energy change by RFO approximation:        -0.0045937990

	Back-transformation to cartesian coordinates...
	Could not converge backtransformation.
	Using first guess instead.

	--- Internal Coordinate Step in ANG or DEG, aJ/ANG or AJ/DEG ---
	 ---------------------------------------------------------------------------
	   Coordinate                Previous        Force       Change         New 
	   ----------                --------       ------       ------       ------
	    1 R(1,4)          =      1.069698     0.098545     0.011920     1.081617
	    2 R(2,4)          =      1.070683     0.096607     0.011703     1.082386
	    3 R(3,4)          =      1.069320     0.100899     0.012189     1.081510
	    4 R(4,7)          =      1.540645    -0.052419    -0.007504     1.533141
	    5 R(5,7)          =      1.070326     0.101641     0.012265     1.082591
	    6 R(6,7)          =      1.069761     0.109092     0.013147     1.082907
	    7 R(7,10)         =      1.540128    -0.074109    -0.010494     1.529633
	    8 R(8,10)         =      1.069698     0.103700     0.012502     1.082199
	    9 R(9,10)         =      1.069668     0.104589     0.012609     1.082276
	   10 R(10,14)        =      1.539422    -0.002306    -0.000248     1.539174
	   11 R(11,14)        =      1.069533     0.097626     0.011915     1.081448
	   12 R(12,14)        =      1.070328     0.094754     0.011484     1.081813
	   13 R(13,14)        =      1.070144     0.092328     0.011189     1.081334
	   14 B(1,4,2)        =    109.484805    -0.000254    -0.573766   108.911039
	   15 B(1,4,3)        =    109.499161    -0.000171    -0.444068   109.055093
	   16 B(1,4,7)        =    109.457783     0.000143     0.318987   109.776770
	   17 B(2,4,3)        =    109.437340    -0.000239    -0.539891   108.897449
	   18 B(2,4,7)        =    109.467262     0.000413     0.987969   110.455231
	   19 B(3,4,7)        =    109.480971     0.000108     0.236097   109.717068
	   20 B(4,7,5)        =    109.431343    -0.000106    -0.103250   109.328093
	   21 B(4,7,6)        =    109.528316    -0.000139    -0.190555   109.337761
	   22 B(4,7,10)       =    109.501062     0.000666     1.404516   110.905578
	   23 B(5,7,6)        =    109.469614     0.000017    -0.205431   109.264182
	   24 B(5,7,10)       =    109.437654    -0.000240    -0.515400   108.922254
	   25 B(6,7,10)       =    109.459295    -0.000199    -0.399865   109.059430
	   26 B(7,10,8)       =    109.452301    -0.000255    -0.521355   108.930945
	   27 B(7,10,9)       =    109.482155    -0.000255    -0.588945   108.893211
	   28 B(7,10,14)      =    109.504437     0.000709     1.497138   111.001575
	   29 B(8,10,9)       =    109.458846     0.000004    -0.268697   109.190149
	   30 B(8,10,14)      =    109.478806    -0.000117    -0.109190   109.369616
	   31 B(9,10,14)      =    109.450772    -0.000087    -0.022566   109.428206
	   32 B(10,14,11)     =    109.459889     0.000179     0.431602   109.891491
	   33 B(10,14,12)     =    109.497551     0.000437     1.008621   110.506172
	   34 B(10,14,13)     =    109.498458     0.000263     0.606509   110.104967
	   35 B(11,14,12)     =    109.461724    -0.000294    -0.682055   108.779669
	   36 B(11,14,13)     =    109.471737    -0.000239    -0.539492   108.932245
	   37 B(12,14,13)     =    109.437958    -0.000347    -0.851328   108.586630
	   38 D(1,4,7,5)      =    179.965873     0.000007     0.100180   180.066053
	   39 D(1,4,7,6)      =    -60.025575    -0.000022    -0.329364   -60.354939
	   40 D(1,4,7,10)     =     60.013132    -0.000004    -0.069314    59.943819
	   41 D(2,4,7,5)      =    -60.028143     0.000014     0.207237   -59.820905
	   42 D(2,4,7,6)      =     59.980409    -0.000016    -0.222307    59.758103
	   43 D(2,4,7,10)     =   -179.980883     0.000003     0.037743  -179.943140
	   44 D(3,4,7,5)      =     59.933911     0.000020     0.303225    60.237136
	   45 D(3,4,7,6)      =    179.942463    -0.000009    -0.126319   179.816144
	   46 D(3,4,7,10)     =    -60.018830     0.000009     0.133731   -59.885099
	   47 D(4,7,10,8)     =    -60.009777     0.000038     0.546913   -59.462864
	   48 D(4,7,10,9)     =     59.970178    -0.000033    -0.442087    59.528091
	   49 D(4,7,10,14)    =    179.972182     0.000007     0.084530   180.056712
	   50 D(5,7,10,8)     =   -179.958653     0.000007     0.132165  -179.826488
	   51 D(5,7,10,9)     =    -59.978698    -0.000063    -0.856836   -60.835534
	   52 D(5,7,10,14)    =     60.023306    -0.000024    -0.330218    59.693087
	   53 D(6,7,10,8)     =     60.071149     0.000064     0.930060    61.001209
	   54 D(6,7,10,9)     =   -179.948896    -0.000006    -0.058941  -180.007837
	   55 D(6,7,10,14)    =    -59.946893     0.000033     0.467677   -59.479216
	   56 D(7,10,14,11)   =    -30.023503    -0.000009    -0.130280   -30.153783
	   57 D(7,10,14,12)   =   -150.021054    -0.000013    -0.188469  -150.209522
	   58 D(7,10,14,13)   =     89.986869    -0.000014    -0.149273    89.837596
	   59 D(8,10,14,11)   =   -150.025325    -0.000021    -0.348717  -150.374042
	   60 D(8,10,14,12)   =     89.977124    -0.000025    -0.406906    89.570219
	   61 D(8,10,14,13)   =    -30.014953    -0.000026    -0.367710   -30.382663
	   62 D(9,10,14,11)   =     89.997705     0.000007     0.059903    90.057608
	   63 D(9,10,14,12)   =    -29.999846     0.000003     0.001714   -29.998132
	   64 D(9,10,14,13)   =   -149.991924     0.000002     0.040910  -149.951013
	 ---------------------------------------------------------------------------
	Successfully symmetrized geometry.
	 Forces used to impose fixed constraints are not included.
	  Forces zeroed: 58 

  ==> Convergence Check <==

  Measures of convergence in internal coordinates in au.
  Criteria marked as inactive (o), active & met (*), and active & unmet ( ).
  --------------------------------------------------------------------------------------------- ~
   Step     Total Energy     Delta E     MAX Force     RMS Force      MAX Disp      RMS Disp    ~
  --------------------------------------------------------------------------------------------- ~
    Convergence Criteria    1.00e-06 *    3.00e-04 *             o    1.20e-03 *             o  ~
  --------------------------------------------------------------------------------------------- ~
      1    -158.15456185   -1.58e+02      1.32e-02      5.62e-03 o    2.61e-02      1.25e-02 o  ~
  ---------------------------------------------------------------------------------------------

	Writing optimization data to binary file.
	Structure for next step:
	Cartesian Geometry (in Angstrom)
	    H    -2.3322421037   0.0592189886   0.3185085839
	    H    -2.1889241729   1.6989411138  -0.3068653076
	    H    -1.8893231379   0.3247131913  -1.3657440268
	    C    -1.7794527863   0.6982388242  -0.3567494883
	    H     0.2491266297   1.3481896640  -0.6459585957
	    H    -0.1935994505   1.0838404839   1.0429390244
	    C    -0.2967967531   0.7059405975   0.0333696953
	    H    -0.2546888295  -1.3466493120   0.6417550122
	    H     0.1882750522  -1.0788375175  -1.0448153719
	    C     0.2929208291  -0.7037884845  -0.0350088043
	    H     2.2287741302   0.2489736013   0.0914347370
	    H     2.3110200172  -1.4904412997  -0.1551154906
	    H     1.8848822541  -0.8487618344   1.4234837072
	    C     1.7811639108  -0.6988209569   0.3576307357
			--------------------------
			 OPTKING Finished Execution 
			--------------------------

    Structure for next step:
    Molecular point group: c1
    Full point group: C1

    Geometry (in Angstrom), charge = 0, multiplicity = 1:

    H           -2.331852088906     0.058908709203     0.318671726296
    H           -2.188534158097     1.698630834429    -0.306702165191
    H           -1.888933123093     0.324402911923    -1.365580884397
    C           -1.779062771451     0.697928544830    -0.356586345942
    H            0.249516644546     1.347879384670    -0.645795453311
    H           -0.193209435626     1.083530204584     1.043102166782
    C           -0.296406738248     0.705630318179     0.033532837681
    H           -0.254298814668    -1.346959591369     0.641918154611
    H            0.188665067060    -1.079147796840    -1.044652229551
    C            0.293310843882    -0.704098763836    -0.034845661976
    H            2.229164145077     0.248663321972     0.091597879350
    H            2.311410032016    -1.490751579014    -0.154952348210
    H            1.885272268916    -0.849072113780     1.423646849526
    C            1.781553925678    -0.699131236272     0.357793878061

gradient() will perform analytic gradient computation.

*** tstart() called on cpu-6-2.local
*** at Wed Jun 14 14:59:37 2017

    SCF Algorithm Type (re)set to DF.

*** tstart() called on cpu-6-2.local
*** at Wed Jun 14 14:59:37 2017

   => Loading Basis Set <=

    Name: AUG-CC-PVTZ
    Role: ORBITAL
    Keyword: BASIS
    atoms 1-3, 5-6, 8-9, 11-13 entry H          line    34 file /cbio/jclab/home/chayas/anaconda/envs/py35/share/psi4/basis/aug-cc-pvtz.gbs 
    atoms 4, 7, 10, 14         entry C          line   221 file /cbio/jclab/home/chayas/anaconda/envs/py35/share/psi4/basis/aug-cc-pvtz.gbs 


         ---------------------------------------------------------
                                   SCF
            by Justin Turney, Rob Parrish, and Andy Simmonett
                              RHF Reference
                        1 Threads,    953 MiB Core
         ---------------------------------------------------------

  ==> Geometry <==

    Molecular point group: c1
    Full point group: C1

    Geometry (in Angstrom), charge = 0, multiplicity = 1:

       Center              X                  Y                   Z               Mass       
    ------------   -----------------  -----------------  -----------------  -----------------
           H         -2.331852088906     0.058908709203     0.318671726296     1.007825032070
           H         -2.188534158097     1.698630834429    -0.306702165191     1.007825032070
           H         -1.888933123093     0.324402911923    -1.365580884397     1.007825032070
           C         -1.779062771451     0.697928544830    -0.356586345942    12.000000000000
           H          0.249516644546     1.347879384670    -0.645795453311     1.007825032070
           H         -0.193209435626     1.083530204584     1.043102166782     1.007825032070
           C         -0.296406738248     0.705630318179     0.033532837681    12.000000000000
           H         -0.254298814668    -1.346959591369     0.641918154611     1.007825032070
           H          0.188665067060    -1.079147796840    -1.044652229551     1.007825032070
           C          0.293310843882    -0.704098763836    -0.034845661976    12.000000000000
           H          2.229164145077     0.248663321972     0.091597879350     1.007825032070
           H          2.311410032016    -1.490751579014    -0.154952348210     1.007825032070
           H          1.885272268916    -0.849072113780     1.423646849526     1.007825032070
           C          1.781553925678    -0.699131236272     0.357793878061    12.000000000000

  Running in c1 symmetry.

  Rotational constants: A =      0.77690  B =      0.12326  C =      0.11551 [cm^-1]
  Rotational constants: A =  23290.99501  B =   3695.16487  C =   3462.83253 [MHz]
  Nuclear repulsion =  131.355252048323251

  Charge       = 0
  Multiplicity = 1
  Electrons    = 34
  Nalpha       = 17
  Nbeta        = 17

  ==> Algorithm <==

  SCF Algorithm Type is DF.
  DIIS enabled.
  MOM disabled.
  Fractional occupation disabled.
  Guess Type is READ.
  Energy threshold   = 1.00e-10
  Density threshold  = 1.00e-10
  Integral threshold = 0.00e+00

  ==> Primary Basis <==

  Basis Set: AUG-CC-PVTZ
    Blend: AUG-CC-PVTZ
    Number of shells: 146
    Number of basis function: 414
    Number of Cartesian functions: 470
    Spherical Harmonics?: true
    Max angular momentum: 3

   => Loading Basis Set <=

    Name: (AUG-CC-PVTZ AUX)
    Role: JKFIT
    Keyword: DF_BASIS_SCF
    atoms 1-3, 5-6, 8-9, 11-13 entry H          line    69 file /cbio/jclab/home/chayas/anaconda/envs/py35/share/psi4/basis/aug-cc-pvtz-jkfit.gbs 
    atoms 4, 7, 10, 14         entry C          line   161 file /cbio/jclab/home/chayas/anaconda/envs/py35/share/psi4/basis/aug-cc-pvtz-jkfit.gbs 

  Reading orbitals from file 180, no projection.

  ==> Pre-Iterations <==

   -------------------------------------------------------
    Irrep   Nso     Nmo     Nalpha   Nbeta   Ndocc  Nsocc
   -------------------------------------------------------
     A        414     414       0       0       0       0
   -------------------------------------------------------
    Total     414     414      17      17      17       0
   -------------------------------------------------------

  ==> Integral Setup <==

  ==> DFJK: Density-Fitted J/K Matrices <==

    J tasked:                  Yes
    K tasked:                  Yes
    wK tasked:                  No
    OpenMP threads:              1
    Integrals threads:           1
    Memory (MB):               715
    Algorithm:                Core
    Integral Cache:           NONE
    Schwarz Cutoff:          1E-12
    Fitting Condition:       1E-12

   => Auxiliary Basis Set <=

  Basis Set: (AUG-CC-PVTZ AUX)
    Blend: AUG-CC-PVTZ-JKFIT
    Number of shells: 260
    Number of basis function: 876
    Number of Cartesian functions: 1074
    Spherical Harmonics?: true
    Max angular momentum: 4

  Minimum eigenvalue in the overlap matrix is 9.0020452176E-06.
  Using Symmetric Orthogonalization.

  SCF Guess: Orbitals guess was supplied from a previous computation.

  ==> Iterations <==

                           Total Energy        Delta E     RMS |[F,P]|

   @DF-RHF iter   0:  -157.27622627277910   -1.57276e+02   1.22484e-04 
   @DF-RHF iter   1:  -157.35245175745229   -7.62255e-02   5.07841e-05 
   @DF-RHF iter   2:  -157.35271438068065   -2.62623e-04   2.62636e-05 DIIS
   @DF-RHF iter   3:  -157.35277039274916   -5.60121e-05   2.84998e-06 DIIS
   @DF-RHF iter   4:  -157.35277184749549   -1.45475e-06   7.71327e-07 DIIS
   @DF-RHF iter   5:  -157.35277193734976   -8.98543e-08   2.58843e-07 DIIS
   @DF-RHF iter   6:  -157.35277194775264   -1.04029e-08   4.38273e-08 DIIS
   @DF-RHF iter   7:  -157.35277194818480   -4.32152e-10   6.56452e-09 DIIS
   @DF-RHF iter   8:  -157.35277194819525   -1.04592e-11   1.27517e-09 DIIS
   @DF-RHF iter   9:  -157.35277194819577   -5.11591e-13   3.12964e-10 DIIS
   @DF-RHF iter  10:  -157.35277194819560    1.70530e-13   7.29064e-11 DIIS

  ==> Post-Iterations <==

    Orbital Energies (a.u.)
    -----------------------

    Doubly Occupied:                                                      

       1A    -11.210395     2A    -11.209602     3A    -11.203617  
       4A    -11.203255     5A     -1.070652     6A     -0.979244  
       7A     -0.860333     8A     -0.789603     9A     -0.644495  
      10A     -0.584423    11A     -0.572723    12A     -0.572285  
      13A     -0.511650    14A     -0.500756    15A     -0.468899  
      16A     -0.465056    17A     -0.448636  

    Virtual:                                                              

      18A      0.032303    19A      0.037289    20A      0.039496  
      21A      0.040635    22A      0.057617    23A      0.058517  
      24A      0.059949    25A      0.061144    26A      0.080153  
      27A      0.082727    28A      0.100516    29A      0.112514  
      30A      0.122860    31A      0.130728    32A      0.137050  
      33A      0.141739    34A      0.142609    35A      0.145817  
      36A      0.148303    37A      0.160184    38A      0.163629  
      39A      0.166897    40A      0.171544    41A      0.201538  
      42A      0.205626    43A      0.213596    44A      0.228125  
      45A      0.242883    46A      0.248856    47A      0.252046  
      48A      0.267502    49A      0.276323    50A      0.282202  
      51A      0.285776    52A      0.313846    53A      0.318430  
      54A      0.329815    55A      0.336445    56A      0.344746  
      57A      0.353123    58A      0.357065    59A      0.357994  
      60A      0.364139    61A      0.371575    62A      0.372616  
      63A      0.380951    64A      0.386252    65A      0.390004  
      66A      0.390795    67A      0.397322    68A      0.401015  
      69A      0.403868    70A      0.411104    71A      0.418539  
      72A      0.428702    73A      0.440582    74A      0.447586  
      75A      0.450100    76A      0.459501    77A      0.460316  
      78A      0.463296    79A      0.470627    80A      0.483570  
      81A      0.486614    82A      0.496073    83A      0.500021  
      84A      0.504129    85A      0.511529    86A      0.514701  
      87A      0.518623    88A      0.531825    89A      0.537371  
      90A      0.543282    91A      0.547652    92A      0.555223  
      93A      0.568489    94A      0.571749    95A      0.581936  
      96A      0.589658    97A      0.606906    98A      0.609538  
      99A      0.609970   100A      0.632370   101A      0.640287  
     102A      0.658304   103A      0.676285   104A      0.679848  
     105A      0.698721   106A      0.717092   107A      0.760604  
     108A      0.776565   109A      0.798278   110A      0.811112  
     111A      0.820362   112A      0.827796   113A      0.834170  
     114A      0.844387   115A      0.846632   116A      0.858487  
     117A      0.866501   118A      0.874624   119A      0.879793  
     120A      0.888203   121A      0.895110   122A      0.900924  
     123A      0.909085   124A      0.919235   125A      0.923977  
     126A      0.929240   127A      0.931736   128A      0.935014  
     129A      0.944013   130A      0.959581   131A      0.960730  
     132A      0.973015   133A      0.977419   134A      0.986776  
     135A      0.994435   136A      1.016650   137A      1.024467  
     138A      1.032375   139A      1.045995   140A      1.066328  
     141A      1.079867   142A      1.082472   143A      1.088033  
     144A      1.103753   145A      1.108864   146A      1.114589  
     147A      1.123972   148A      1.131086   149A      1.147309  
     150A      1.152653   151A      1.156510   152A      1.169010  
     153A      1.174529   154A      1.187735   155A      1.194304  
     156A      1.215330   157A      1.223945   158A      1.230301  
     159A      1.241232   160A      1.247435   161A      1.259219  
     162A      1.265075   163A      1.272408   164A      1.279380  
     165A      1.293840   166A      1.298499   167A      1.313162  
     168A      1.320288   169A      1.335933   170A      1.355463  
     171A      1.366190   172A      1.383546   173A      1.401399  
     174A      1.412760   175A      1.427505   176A      1.440631  
     177A      1.456856   178A      1.479509   179A      1.499024  
     180A      1.505427   181A      1.516954   182A      1.523219  
     183A      1.537329   184A      1.554084   185A      1.568458  
     186A      1.583636   187A      1.595446   188A      1.609371  
     189A      1.628727   190A      1.639407   191A      1.647941  
     192A      1.657664   193A      1.670273   194A      1.690883  
     195A      1.694860   196A      1.697989   197A      1.710002  
     198A      1.715707   199A      1.728864   200A      1.738184  
     201A      1.745866   202A      1.758860   203A      1.763566  
     204A      1.768004   205A      1.780759   206A      1.783141  
     207A      1.792893   208A      1.806034   209A      1.817370  
     210A      1.854554   211A      1.866137   212A      1.871219  
     213A      1.887221   214A      1.897955   215A      1.912252  
     216A      1.923861   217A      1.954548   218A      1.966790  
     219A      1.985097   220A      1.992847   221A      1.994948  
     222A      2.011955   223A      2.024108   224A      2.035026  
     225A      2.038509   226A      2.058166   227A      2.082705  
     228A      2.088838   229A      2.103303   230A      2.155477  
     231A      2.162646   232A      2.186351   233A      2.195166  
     234A      2.203238   235A      2.229285   236A      2.252734  
     237A      2.261696   238A      2.274169   239A      2.286272  
     240A      2.298643   241A      2.324564   242A      2.331623  
     243A      2.337734   244A      2.344494   245A      2.360761  
     246A      2.374647   247A      2.408926   248A      2.440440  
     249A      2.463568   250A      2.479157   251A      2.500765  
     252A      2.541967   253A      2.601643   254A      2.611548  
     255A      2.630450   256A      2.662568   257A      2.767470  
     258A      2.895785   259A      2.961257   260A      3.029798  
     261A      3.228699   262A      3.242816   263A      3.302787  
     264A      3.364858   265A      3.398240   266A      3.428064  
     267A      3.447124   268A      3.459015   269A      3.464176  
     270A      3.486371   271A      3.522792   272A      3.556824  
     273A      3.564826   274A      3.582404   275A      3.600203  
     276A      3.603315   277A      3.633107   278A      3.661606  
     279A      3.677872   280A      3.688472   281A      3.704713  
     282A      3.710736   283A      3.734052   284A      3.742542  
     285A      3.752673   286A      3.775272   287A      3.778543  
     288A      3.798456   289A      3.815655   290A      3.827841  
     291A      3.847169   292A      3.869911   293A      3.873074  
     294A      3.881733   295A      3.906202   296A      3.914691  
     297A      3.952208   298A      3.968508   299A      3.971781  
     300A      3.980440   301A      3.997837   302A      4.007790  
     303A      4.015066   304A      4.018029   305A      4.047607  
     306A      4.053515   307A      4.065762   308A      4.083524  
     309A      4.132820   310A      4.163877   311A      4.186923  
     312A      4.195275   313A      4.220703   314A      4.230423  
     315A      4.237981   316A      4.261305   317A      4.267936  
     318A      4.281872   319A      4.312019   320A      4.317143  
     321A      4.332556   322A      4.365720   323A      4.375066  
     324A      4.399735   325A      4.427889   326A      4.438062  
     327A      4.507072   328A      4.524923   329A      4.560183  
     330A      4.572436   331A      4.605249   332A      4.647535  
     333A      4.654182   334A      4.673614   335A      4.701507  
     336A      4.716188   337A      4.723243   338A      4.734717  
     339A      4.760654   340A      4.776515   341A      4.791352  
     342A      4.843188   343A      4.853764   344A      4.869278  
     345A      4.875930   346A      4.917420   347A      4.936957  
     348A      4.944135   349A      4.959713   350A      4.997528  
     351A      5.024271   352A      5.045409   353A      5.065265  
     354A      5.085936   355A      5.106038   356A      5.142234  
     357A      5.148860   358A      5.171005   359A      5.206445  
     360A      5.217493   361A      5.231060   362A      5.252247  
     363A      5.263170   364A      5.289793   365A      5.306871  
     366A      5.319082   367A      5.365891   368A      5.369607  
     369A      5.414224   370A      5.434033   371A      5.437774  
     372A      5.450346   373A      5.474889   374A      5.495681  
     375A      5.556472   376A      5.568189   377A      5.584595  
     378A      5.630565   379A      5.643031   380A      5.648318  
     381A      5.686753   382A      5.723794   383A      5.737505  
     384A      5.756610   385A      5.805759   386A      5.814366  
     387A      5.866385   388A      5.888470   389A      5.932452  
     390A      5.993972   391A      6.067477   392A      6.125869  
     393A      6.142592   394A      6.175609   395A      6.188156  
     396A      6.225315   397A      6.231312   398A      6.285895  
     399A      6.292027   400A      6.328143   401A      6.350447  
     402A      6.431347   403A      6.554623   404A      6.580494  
     405A      6.733906   406A      6.779007   407A      6.830365  
     408A      6.850947   409A      6.853252   410A      6.985521  
     411A     18.015621   412A     18.142902   413A     18.812725  
     414A     18.935994  

    Final Occupation by Irrep:
              A 
    DOCC [    17 ]

  Energy converged.

  @DF-RHF Final Energy:  -157.35277194819560

   => Energetics <=

    Nuclear Repulsion Energy =            131.3552520483232513
    One-Electron Energy =                -470.8247966490567933
    Two-Electron Energy =                 182.1167726525379749
    DFT Exchange-Correlation Energy =       0.0000000000000000
    Empirical Dispersion Energy =           0.0000000000000000
    PCM Polarization Energy =               0.0000000000000000
    EFP Energy =                            0.0000000000000000
    Total Energy =                       -157.3527719481955955



Properties will be evaluated at   0.000000,   0.000000,   0.000000 Bohr

Properties computed using the SCF density matrix

  Nuclear Dipole Moment: (a.u.)
     X:     0.0068      Y:    -0.0037      Z:     0.0012

  Electronic Dipole Moment: (a.u.)
     X:    -0.0075      Y:     0.0035      Z:     0.0001

  Dipole Moment: (a.u.)
     X:    -0.0008      Y:    -0.0002      Z:     0.0013     Total:     0.0015

  Dipole Moment: (Debye)
     X:    -0.0019      Y:    -0.0005      Z:     0.0033     Total:     0.0039


*** tstop() called on cpu-6-2.local at Wed Jun 14 15:00:30 2017
Module time:
	user time   =      52.72 seconds =       0.88 minutes
	system time =       0.35 seconds =       0.01 minutes
	total time  =         53 seconds =       0.88 minutes
Total time:
	user time   =     355.41 seconds =       5.92 minutes
	system time =       3.70 seconds =       0.06 minutes
	total time  =        361 seconds =       6.02 minutes

  //>>>>>>>>>>>>>>>>>>>>>>>>>>>>>>>>>>>//
  //               DFMP2               //
  //<<<<<<<<<<<<<<<<<<<<<<<<<<<<<<<<<<<//

   => Loading Basis Set <=

    Name: (AUG-CC-PVTZ AUX)
    Role: RIFIT
    Keyword: DF_BASIS_MP2
    atoms 1-3, 5-6, 8-9, 11-13 entry H          line    29 file /cbio/jclab/home/chayas/anaconda/envs/py35/share/psi4/basis/aug-cc-pvtz-ri.gbs 
    atoms 4, 7, 10, 14         entry C          line   147 file /cbio/jclab/home/chayas/anaconda/envs/py35/share/psi4/basis/aug-cc-pvtz-ri.gbs 

	 --------------------------------------------------------
	                          DF-MP2                         
	      2nd-Order Density-Fitted Moller-Plesset Theory     
	              RMP2 Wavefunction,   1 Threads             
	                                                         
	        Rob Parrish, Justin Turney, Andy Simmonett,      
	           Ed Hohenstein, and C. David Sherrill          
	 --------------------------------------------------------

   => Auxiliary Basis Set <=

  Basis Set: (AUG-CC-PVTZ AUX)
    Blend: AUG-CC-PVTZ-RI
    Number of shells: 252
    Number of basis function: 884
    Number of Cartesian functions: 1094
    Spherical Harmonics?: true
    Max angular momentum: 4

	 --------------------------------------------------------
	                 NBF =   414, NAUX =   884
	 --------------------------------------------------------
	   CLASS    FOCC     OCC    AOCC    AVIR     VIR    FVIR
	   PAIRS       0      17      17     397     397       0
	 --------------------------------------------------------


         ------------------------------------------------------------
                                     CPHF                           
                                  Rob Parrish                       
         ------------------------------------------------------------

  ==> Geometry <==

    Molecular point group: c1
    Full point group: C1

    Geometry (in Angstrom), charge = 0, multiplicity = 1:

       Center              X                  Y                   Z               Mass       
    ------------   -----------------  -----------------  -----------------  -----------------
           H         -2.331852088906     0.058908709203     0.318671726296     1.007825032070
           H         -2.188534158097     1.698630834429    -0.306702165191     1.007825032070
           H         -1.888933123093     0.324402911923    -1.365580884397     1.007825032070
           C         -1.779062771451     0.697928544830    -0.356586345942    12.000000000000
           H          0.249516644546     1.347879384670    -0.645795453311     1.007825032070
           H         -0.193209435626     1.083530204584     1.043102166782     1.007825032070
           C         -0.296406738248     0.705630318179     0.033532837681    12.000000000000
           H         -0.254298814668    -1.346959591369     0.641918154611     1.007825032070
           H          0.188665067060    -1.079147796840    -1.044652229551     1.007825032070
           C          0.293310843882    -0.704098763836    -0.034845661976    12.000000000000
           H          2.229164145077     0.248663321972     0.091597879350     1.007825032070
           H          2.311410032016    -1.490751579014    -0.154952348210     1.007825032070
           H          1.885272268916    -0.849072113780     1.423646849526     1.007825032070
           C          1.781553925678    -0.699131236272     0.357793878061    12.000000000000

  Nuclear repulsion =  131.355252048323251
  Reference energy  = -157.352771948195596

  ==> Basis Set <==

  Basis Set: AUG-CC-PVTZ
    Blend: AUG-CC-PVTZ
    Number of shells: 146
    Number of basis function: 414
    Number of Cartesian functions: 470
    Spherical Harmonics?: true
    Max angular momentum: 3

  ==> CGRSolver (by Rob Parrish) <==

   Number of roots    =         1
   Preconditioning    =    JACOBI
   Convergence cutoff =     1E-06
   Maximum iterations =       100

  ==> CPHFRHamiltonian (by Rob Parrish) <== 

  ==> DFJK: Density-Fitted J/K Matrices <==

    J tasked:                  Yes
    K tasked:                  Yes
    wK tasked:                  No
    OpenMP threads:              1
    Integrals threads:           1
    Memory (MB):               715
    Algorithm:                Core
    Integral Cache:           NONE
    Schwarz Cutoff:          1E-12
    Fitting Condition:       1E-12

   => Auxiliary Basis Set <=

  Basis Set: (AUG-CC-PVTZ AUX)
    Blend: AUG-CC-PVTZ-JKFIT
    Number of shells: 260
    Number of basis function: 876
    Number of Cartesian functions: 1074
    Spherical Harmonics?: true
    Max angular momentum: 4

  ==> CPHF Iterations <==

  => Iterations <=

             Iter  Converged  Remaining    Residual
  CGR           1          0          1   8.301E-02
  CGR           2          0          1   1.326E-02
  CGR           3          0          1   3.490E-03
  CGR           4          0          1   8.153E-04
  CGR           5          0          1   1.204E-04
  CGR           6          0          1   2.206E-05
  CGR           7          0          1   3.912E-06
  CGR           8          1          0   8.951E-07

    CGRSolver converged.

  ==> DFCorrGrad: Density-Fitted Correlated Gradients <==

    OpenMP threads:              1
    Integrals threads:           1
    Memory (MB):               715
    Schwarz Cutoff:          0E+00
    Fitting Condition:       1E-12

   => Auxiliary Basis Set <=

  Basis Set: (AUG-CC-PVTZ AUX)
    Blend: AUG-CC-PVTZ-JKFIT
    Number of shells: 260
    Number of basis function: 876
    Number of Cartesian functions: 1074
    Spherical Harmonics?: true
    Max angular momentum: 4

	-----------------------------------------------------------
	 ==================> DF-MP2 Energies <==================== 
	-----------------------------------------------------------
	 Reference Energy          =    -157.3527719481955955 [Eh]
	 Singles Energy            =      -0.0000000000000001 [Eh]
	 Same-Spin Energy          =      -0.1653440646785956 [Eh]
	 Opposite-Spin Energy      =      -0.6394989516498925 [Eh]
	 Correlation Energy        =      -0.8048430163284881 [Eh]
	 Total Energy              =    -158.1576149645240719 [Eh]
	-----------------------------------------------------------
	 ================> DF-SCS-MP2 Energies <================== 
	-----------------------------------------------------------
	 SCS Same-Spin Scale       =       0.3333333333333333 [-]
	 SCS Opposite-Spin Scale   =       1.2000000000000000 [-]
	 SCS Same-Spin Energy      =      -0.0551146882261985 [Eh]
	 SCS Opposite-Spin Energy  =      -0.7673987419798709 [Eh]
	 SCS Correlation Energy    =      -0.8225134302060695 [Eh]
	 SCS Total Energy          =    -158.1752853784016679 [Eh]
	-----------------------------------------------------------


  -Total Gradient:
     Atom            X                  Y                   Z
    ------   -----------------  -----------------  -----------------
       1        0.003536035466     0.002184123565    -0.001335620324
       2        0.003357156147    -0.002294270427     0.000506028267
       3        0.002190476239     0.001541540137     0.003522135577
       4       -0.013754290171    -0.003748420846    -0.004543292869
       5       -0.003432196050    -0.003732227481     0.000522421800
       6       -0.002626503926    -0.003644852373    -0.003234524389
       7        0.013573382764     0.016115965971     0.004734504531
       8        0.003639924171     0.004589152761     0.000455150085
       9        0.002766136311     0.002572047795     0.003385629203
      10       -0.012527801552    -0.016080455712    -0.004728054594
      11       -0.003447661475    -0.002562578199     0.000978789755
      12       -0.003624901225     0.002442745397    -0.000337935951
      13       -0.002516315281    -0.001260315005    -0.003527961875
      14        0.012866558582     0.003877544419     0.003602730782


*** tstop() called on cpu-6-2.local at Wed Jun 14 15:04:31 2017
Module time:
	user time   =     291.63 seconds =       4.86 minutes
	system time =       3.10 seconds =       0.05 minutes
	total time  =        294 seconds =       4.90 minutes
Total time:
	user time   =     594.32 seconds =       9.91 minutes
	system time =       6.45 seconds =       0.11 minutes
	total time  =        602 seconds =      10.03 minutes

			-----------------------------------------
			 OPTKING 2.0: for geometry optimizations 
			  - R.A. King,  Bethel University        
			-----------------------------------------

	Previous internal coordinate definitions found.
	---Fragment 1 Geometry and Gradient---
	 H          -4.4065618304        0.1113213272        0.6022022890
	 H          -4.1357301913        3.2099470779       -0.5795830966
	 H          -3.5695662860        0.6130326602       -2.5805738838
	 C          -3.3619414113        1.3188938101       -0.6738505366
	 H           0.4715181238        2.5471228972       -1.2203765446
	 H          -0.3651129196        2.0475753434        1.9711774238
	 C          -0.5601275592        1.3334480524        0.0633678797
	 H          -0.4805551156       -2.5453847398        1.2130495119
	 H           0.3565253076       -2.0392937929       -1.9741066180
	 C           0.5542771667       -1.3305538342       -0.0658487581
	 H           4.2125097394        0.4699055778        0.1730949063
	 H           4.3679319413       -2.8171122165       -0.2928175018
	 H           3.5626482742       -1.6045137621        2.6903026555
	 C           3.3666490105       -1.3211665675        0.6761324416
	             0.0035360355        0.0021841236       -0.0013356203
	             0.0033571561       -0.0022942704        0.0005060283
	             0.0021904762        0.0015415401        0.0035221356
	            -0.0137542902       -0.0037484208       -0.0045432929
	            -0.0034321961       -0.0037322275        0.0005224218
	            -0.0026265039       -0.0036448524       -0.0032345244
	             0.0135733828        0.0161159660        0.0047345045
	             0.0036399242        0.0045891528        0.0004551501
	             0.0027661363        0.0025720478        0.0033856292
	            -0.0125278016       -0.0160804557       -0.0047280546
	            -0.0034476615       -0.0025625782        0.0009787898
	            -0.0036249012        0.0024427454       -0.0003379360
	            -0.0025163153       -0.0012603150       -0.0035279619
	             0.0128665586        0.0038775444        0.0036027308

	---Fragment 1 Intrafragment Coordinates---
	 - Coordinate -           - BOHR/RAD -       - ANG/DEG -
	 R(1,4)           =         2.043960	       1.081617
	 R(2,4)           =         2.045414	       1.082386
	 R(3,4)           =         2.043757	       1.081510
	 R(4,7)           =         2.897217	       1.533141
	 R(5,7)           =         2.045800	       1.082591
	 R(6,7)           =         2.046398	       1.082907
	 R(7,10)          =         2.890588	       1.529633
	 R(8,10)          =         2.045061	       1.082199
	 R(9,10)          =         2.045206	       1.082276
	 R(10,14)         =         2.908618	       1.539174
	 R(11,14)         =         2.043641	       1.081448
	 R(12,14)         =         2.044330	       1.081813
	 R(13,14)         =         2.043424	       1.081334
	 B(1,4,2)         =         1.900856	     108.911039
	 B(1,4,3)         =         1.903370	     109.055093
	 B(1,4,7)         =         1.915966	     109.776770
	 B(2,4,3)         =         1.900619	     108.897449
	 B(2,4,7)         =         1.927807	     110.455231
	 B(3,4,7)         =         1.914924	     109.717068
	 B(4,7,5)         =         1.908135	     109.328093
	 B(4,7,6)         =         1.908304	     109.337761
	 B(4,7,10)        =         1.935667	     110.905578
	 B(5,7,6)         =         1.907020	     109.264182
	 B(5,7,10)        =         1.901052	     108.922254
	 B(6,7,10)        =         1.903446	     109.059430
	 B(7,10,8)        =         1.901204	     108.930945
	 B(7,10,9)        =         1.900545	     108.893211
	 B(7,10,14)       =         1.937343	     111.001575
	 B(8,10,9)        =         1.905728	     109.190149
	 B(8,10,14)       =         1.908860	     109.369616
	 B(9,10,14)       =         1.909882	     109.428206
	 B(10,14,11)      =         1.917968	     109.891491
	 B(10,14,12)      =         1.928697	     110.506172
	 B(10,14,13)      =         1.921694	     110.104967
	 B(11,14,12)      =         1.898563	     108.779669
	 B(11,14,13)      =         1.901226	     108.932245
	 B(12,14,13)      =         1.895194	     108.586630
	 D(1,4,7,5)       =        -3.140440	    -179.933947
	 D(1,4,7,6)       =        -1.053392	     -60.354939
	 D(1,4,7,10)      =         1.046217	      59.943819
	 D(2,4,7,5)       =        -1.044072	     -59.820905
	 D(2,4,7,6)       =         1.042976	      59.758103
	 D(2,4,7,10)      =        -3.140600	    -179.943140
	 D(3,4,7,5)       =         1.051336	      60.237136
	 D(3,4,7,6)       =         3.138384	     179.816144
	 D(3,4,7,10)      =        -1.045192	     -59.885099
	 D(4,7,10,8)      =        -1.037823	     -59.462864
	 D(4,7,10,9)      =         1.038961	      59.528091
	 D(4,7,10,14)     =        -3.140603	    -179.943288
	 D(5,7,10,8)      =        -3.138564	    -179.826488
	 D(5,7,10,9)      =        -1.061780	     -60.835534
	 D(5,7,10,14)     =         1.041841	      59.693087
	 D(6,7,10,8)      =         1.064672	      61.001209
	 D(6,7,10,9)      =         3.141456	     179.992163
	 D(6,7,10,14)     =        -1.038108	     -59.479216
	 D(7,10,14,11)    =        -0.526283	     -30.153783
	 D(7,10,14,12)    =        -2.621651	    -150.209522
	 D(7,10,14,13)    =         1.567962	      89.837596
	 D(8,10,14,11)    =        -2.624522	    -150.374042
	 D(8,10,14,12)    =         1.563295	      89.570219
	 D(8,10,14,13)    =        -0.530278	     -30.382663
	 D(9,10,14,11)    =         1.571802	      90.057608
	 D(9,10,14,12)    =        -0.523566	     -29.998132
	 D(9,10,14,13)    =        -2.617139	    -149.951013

	Current energy   :      -158.1576149645

	Energy change for the previous step:
		Projected    :        -0.0045937990
		Actual       :        -0.0030531189

	Performing BFGS update.
	Previous computed or guess Hessian on step 1.
	Steps to be used in Hessian update: 1
	Adding user-defined constraint: Fragment 1; Coordinate 58:
		Value =     1.567962; Fixed value    =     1.570800
		Force =     0.001490; Force constant =     0.525000
	Removing off-diagonal coupling between coordinate 58 and others.
	Taking RFO optimization step.
	Going to follow RFO solution 1.
	Using RFO vector 1.

	Determining step-restricting scale parameter for RS-RFO.
	Maximum step size allowed    0.10000

	 Iter      |step|        alpha        rfo_root  
	------------------------------------------------
	    0     0.18265       1.00000           1
	    1     0.14698       4.56447           1
	    2     0.11879      13.26998           1
	    3     0.10430      22.19512           1
	    4     0.10031      25.58185           1
	    5     0.10000      25.86390           1
	------------------------------------------------
	Norm of target step-size    0.10000
	Projected energy change by RFO approximation:        -0.0024627210

	Back-transformation to cartesian coordinates...
	Successfully converged to displaced geometry.

	--- Internal Coordinate Step in ANG or DEG, aJ/ANG or AJ/DEG ---
	 ---------------------------------------------------------------------------
	   Coordinate                Previous        Force       Change         New 
	   ----------                --------       ------       ------       ------
	    1 R(1,4)          =      1.081617     0.032390     0.005949     1.087566
	    2 R(2,4)          =      1.082386     0.027747     0.004863     1.087250
	    3 R(3,4)          =      1.081510     0.033292     0.006115     1.087625
	    4 R(4,7)          =      1.533141    -0.041189    -0.010972     1.522169
	    5 R(5,7)          =      1.082591     0.035202     0.006552     1.089143
	    6 R(6,7)          =      1.082907     0.037385     0.006929     1.089836
	    7 R(7,10)         =      1.529633    -0.039790    -0.009762     1.519872
	    8 R(8,10)         =      1.082199     0.035289     0.006529     1.088728
	    9 R(9,10)         =      1.082276     0.035572     0.006580     1.088856
	   10 R(10,14)        =      1.539174    -0.027681    -0.008383     1.530791
	   11 R(11,14)        =      1.081448     0.032245     0.005992     1.087440
	   12 R(12,14)        =      1.081813     0.028034     0.004975     1.086787
	   13 R(13,14)        =      1.081334     0.029198     0.005305     1.086638
	   14 B(1,4,2)        =    108.911039    -0.000158    -0.668785   108.242254
	   15 B(1,4,3)        =    109.055093    -0.000154    -0.803110   108.251984
	   16 B(1,4,7)        =    109.776770     0.000132     0.624858   110.401628
	   17 B(2,4,3)        =    108.897449    -0.000152    -0.644959   108.252490
	   18 B(2,4,7)        =    110.455231     0.000205     0.848036   111.303267
	   19 B(3,4,7)        =    109.717068     0.000118     0.578560   110.295629
	   20 B(4,7,5)        =    109.328093    -0.000014     0.184038   109.512131
	   21 B(4,7,6)        =    109.337761    -0.000033     0.106310   109.444071
	   22 B(4,7,10)       =    110.905578     0.000272     1.078032   111.983610
	   23 B(5,7,6)        =    109.264182    -0.000078    -1.111555   108.152627
	   24 B(5,7,10)       =    108.922254    -0.000089    -0.232422   108.689832
	   25 B(6,7,10)       =    109.059430    -0.000063    -0.082378   108.977052
	   26 B(7,10,8)       =    108.930945    -0.000076    -0.055936   108.875010
	   27 B(7,10,9)       =    108.893211    -0.000101    -0.355330   108.537881
	   28 B(7,10,14)      =    111.001575     0.000284     1.117756   112.119331
	   29 B(8,10,9)       =    109.190149    -0.000087    -1.172006   108.018143
	   30 B(8,10,14)      =    109.369616    -0.000021     0.201001   109.570618
	   31 B(9,10,14)      =    109.428206    -0.000005     0.197040   109.625246
	   32 B(10,14,11)     =    109.891491     0.000130     0.646058   110.537548
	   33 B(10,14,12)     =    110.506172     0.000207     0.761803   111.267976
	   34 B(10,14,13)     =    110.104967     0.000170     0.746194   110.851161
	   35 B(11,14,12)     =    108.779669    -0.000166    -0.694365   108.085304
	   36 B(11,14,13)     =    108.932245    -0.000147    -0.564053   108.368192
	   37 B(12,14,13)     =    108.586630    -0.000206    -0.976657   107.609973
	   38 D(1,4,7,5)      =   -179.933947     0.000010     0.461667  -179.472280
	   39 D(1,4,7,6)      =    -60.354939    -0.000019    -0.717736   -61.072675
	   40 D(1,4,7,10)     =     59.943819    -0.000002    -0.058458    59.885361
	   41 D(2,4,7,5)      =    -59.820905     0.000014     0.581377   -59.239528
	   42 D(2,4,7,6)      =     59.758103    -0.000015    -0.598026    59.160077
	   43 D(2,4,7,10)     =   -179.943140     0.000002     0.061252  -179.881888
	   44 D(3,4,7,5)      =     60.237136     0.000017     0.698254    60.935389
	   45 D(3,4,7,6)      =    179.816144    -0.000011    -0.481150   179.334994
[...]
  CGR           2          0          1   1.345E-02
  CGR           3          0          1   3.545E-03
  CGR           4          0          1   8.172E-04
  CGR           5          0          1   1.202E-04
  CGR           6          0          1   2.256E-05
  CGR           7          0          1   4.062E-06
  CGR           8          1          0   9.357E-07

    CGRSolver converged.

  ==> DFCorrGrad: Density-Fitted Correlated Gradients <==

    OpenMP threads:              1
    Integrals threads:           1
    Memory (MB):               715
    Schwarz Cutoff:          0E+00
    Fitting Condition:       1E-12

   => Auxiliary Basis Set <=

  Basis Set: (AUG-CC-PVTZ AUX)
    Blend: AUG-CC-PVTZ-JKFIT
    Number of shells: 260
    Number of basis function: 876
    Number of Cartesian functions: 1074
    Spherical Harmonics?: true
    Max angular momentum: 4

	-----------------------------------------------------------
	 ==================> DF-MP2 Energies <==================== 
	-----------------------------------------------------------
	 Reference Energy          =    -157.3539878396814231 [Eh]
	 Singles Energy            =      -0.0000000000000000 [Eh]
	 Same-Spin Energy          =      -0.1654417858270868 [Eh]
	 Opposite-Spin Energy      =      -0.6395144893171931 [Eh]
	 Correlation Energy        =      -0.8049562751442799 [Eh]
	 Total Energy              =    -158.1589441148257151 [Eh]
	-----------------------------------------------------------
	 ================> DF-SCS-MP2 Energies <================== 
	-----------------------------------------------------------
	 SCS Same-Spin Scale       =       0.3333333333333333 [-]
	 SCS Opposite-Spin Scale   =       1.2000000000000000 [-]
	 SCS Same-Spin Energy      =      -0.0551472619423623 [Eh]
	 SCS Opposite-Spin Energy  =      -0.7674173871806317 [Eh]
	 SCS Correlation Energy    =      -0.8225646491229940 [Eh]
	 SCS Total Energy          =    -158.1765524888044183 [Eh]
	-----------------------------------------------------------


  -Total Gradient:
     Atom            X                  Y                   Z
    ------   -----------------  -----------------  -----------------
       1        0.000006832267    -0.000004057768     0.000008658219
       2       -0.000013664164     0.000004425776    -0.000007684184
       3       -0.000014813019    -0.000004584232    -0.000003141185
       4        0.000030114800     0.000023196699    -0.000029892174
       5       -0.000014436294     0.000006488125     0.000014901093
       6        0.000014559694    -0.000005660837     0.000010232024
       7        0.000635539691     0.000379959317    -0.002335457639
       8       -0.000024020300    -0.000010533496     0.000011059875
       9        0.000002265147    -0.000011339298     0.000025344762
      10       -0.000841435575    -0.001404180263     0.003112177836
      11        0.000020714889     0.000018405700     0.000002089897
      12        0.000003401907     0.000018983813     0.000003358441
      13        0.000116237856    -0.003354403146    -0.000501437043
      14        0.000078703100     0.004343299608    -0.000310209925


*** tstop() called on cpu-6-2.local at Wed Jun 14 15:21:50 2017
Module time:
	user time   =     245.49 seconds =       4.09 minutes
	system time =       2.64 seconds =       0.04 minutes
	total time  =        248 seconds =       4.13 minutes
Total time:
	user time   =    1622.86 seconds =      27.05 minutes
	system time =      17.59 seconds =       0.29 minutes
	total time  =       1641 seconds =      27.35 minutes

			-----------------------------------------
			 OPTKING 2.0: for geometry optimizations 
			  - R.A. King,  Bethel University        
			-----------------------------------------

	Previous internal coordinate definitions found.
	---Fragment 1 Geometry and Gradient---
	 H          -4.4374400235        0.1195895683        0.6379600150
	 H          -4.1703879281        3.1927097898       -0.6060322973
	 H          -3.6370250457        0.5521336386       -2.5569792986
	 C          -3.3665728209        1.3021003979       -0.6604159478
	 H           0.4497272196        2.5529950072       -1.2438212792
	 H          -0.3428850806        2.0910256012        1.9299664963
	 C          -0.5862430405        1.3123917869        0.0353214214
	 H          -0.4862414355       -2.5902294055        1.1221375775
	 H           0.4014107312       -2.0069599952       -2.0001612540
	 C           0.5884565073       -1.3008903955       -0.0724704914
	 H           4.2766402005        0.4622511301        0.1949218127
	 H           4.3919767111       -2.8301176001       -0.2235576539
	 H           3.5723852469       -1.6010934801        2.7227369700
	 C           3.3628341288       -1.3087561878        0.6994823135
	             0.0000068323       -0.0000040578        0.0000086582
	            -0.0000136642        0.0000044258       -0.0000076842
	            -0.0000148130       -0.0000045842       -0.0000031412
	             0.0000301148        0.0000231967       -0.0000298922
	            -0.0000144363        0.0000064881        0.0000149011
	             0.0000145597       -0.0000056608        0.0000102320
	             0.0006355397        0.0003799593       -0.0023354576
	            -0.0000240203       -0.0000105335        0.0000110599
	             0.0000022651       -0.0000113393        0.0000253448
	            -0.0008414356       -0.0014041803        0.0031121778
	             0.0000207149        0.0000184057        0.0000020899
	             0.0000034019        0.0000189838        0.0000033584
	             0.0001162379       -0.0033544031       -0.0005014370
	             0.0000787031        0.0043432996       -0.0003102099

	---Fragment 1 Intrafragment Coordinates---
	 - Coordinate -           - BOHR/RAD -       - ANG/DEG -
	 R(1,4)           =         2.056908	       1.088469
	 R(2,4)           =         2.055111	       1.087518
	 R(3,4)           =         2.057316	       1.088684
	 R(4,7)           =         2.866076	       1.516662
	 R(5,7)           =         2.061198	       1.090739
	 R(6,7)           =         2.062807	       1.091591
	 R(7,10)          =         2.867191	       1.517252
	 R(8,10)          =         2.060209	       1.090215
	 R(9,10)          =         2.061434	       1.090864
	 R(10,14)         =         2.879782	       1.523915
	 R(11,14)         =         2.055746	       1.087854
	 R(12,14)         =         2.055645	       1.087801
	 R(13,14)         =         2.054977	       1.087447
	 B(1,4,2)         =         1.884460	     107.971616
	 B(1,4,3)         =         1.879573	     107.691629
	 B(1,4,7)         =         1.932511	     110.724744
	 B(2,4,3)         =         1.884238	     107.958902
	 B(2,4,7)         =         1.949484	     111.697182
	 B(3,4,7)         =         1.931162	     110.647424
	 B(4,7,5)         =         1.916740	     109.821114
	 B(4,7,6)         =         1.916395	     109.801345
	 B(4,7,10)        =         1.966056	     112.646706
	 B(5,7,6)         =         1.858246	     106.469679
	 B(5,7,10)        =         1.895822	     108.622613
	 B(6,7,10)        =         1.907346	     109.282861
	 B(7,10,8)        =         1.912283	     109.565763
	 B(7,10,9)        =         1.886161	     108.069050
	 B(7,10,14)       =         1.968302	     112.775420
	 B(8,10,9)        =         1.855154	     106.292507
	 B(8,10,14)       =         1.923471	     110.206769
	 B(9,10,14)       =         1.914681	     109.703160
	 B(10,14,11)      =         1.939169	     111.106215
	 B(10,14,12)      =         1.943327	     111.344418
	 B(10,14,13)      =         1.941799	     111.256889
	 B(11,14,12)      =         1.880556	     107.747934
	 B(11,14,13)      =         1.895340	     108.594988
	 B(12,14,13)      =         1.860595	     106.604268
	 D(1,4,7,5)       =        -3.109301	    -178.149841
	 D(1,4,7,6)       =        -1.071655	     -61.401302
	 D(1,4,7,10)      =         1.058363	      60.639706
	 D(2,4,7,5)       =        -1.008434	     -57.779009
	 D(2,4,7,6)       =         1.029212	      58.969531
	 D(2,4,7,10)      =        -3.123955	    -178.989462
	 D(3,4,7,5)       =         1.091232	      62.522972
	 D(3,4,7,6)       =         3.128878	     179.271511
	 D(3,4,7,10)      =        -1.024290	     -58.687482
	 D(4,7,10,8)      =        -0.963169	     -55.185529
	 D(4,7,10,9)      =         1.051158	      60.226928
	 D(4,7,10,14)     =        -3.112499	    -178.333064
	 D(5,7,10,8)      =        -3.090569	    -177.076556
	 D(5,7,10,9)      =        -1.076242	     -61.664099
	 D(5,7,10,14)     =         1.043286	      59.775910
	 D(6,7,10,8)      =         1.171951	      67.147865
	 D(6,7,10,9)      =        -3.096907	    -177.439678
	 D(6,7,10,14)     =        -0.977379	     -55.999669
	 D(7,10,14,11)    =        -0.550142	     -31.520834
	 D(7,10,14,12)    =        -2.646443	    -151.630034
	 D(7,10,14,13)    =         1.563900	      89.604852
	 D(8,10,14,11)    =        -2.693233	    -154.310896
	 D(8,10,14,12)    =         1.493651	      85.579904
	 D(8,10,14,13)    =        -0.579191	     -33.185210
	 D(9,10,14,11)    =         1.553130	      88.987791
	 D(9,10,14,12)    =        -0.543171	     -31.121409
	 D(9,10,14,13)    =        -2.616013	    -149.886523

	Current energy   :      -158.1589441148

	Energy change for the previous step:
		Projected    :        -0.0000083525
		Actual       :         0.0000006213

	Performing BFGS update.
	Previous computed or guess Hessian on step 1.
	Steps to be used in Hessian update: 5 4
	Adding user-defined constraint: Fragment 1; Coordinate 58:
		Value =     1.563900; Fixed value    =     1.570800
		Force =     0.004313; Force constant =     0.625000
	Removing off-diagonal coupling between coordinate 58 and others.
	Taking RFO optimization step.
	Going to follow RFO solution 1.
	Using RFO vector 1.
	Norm of target step-size    0.01728
	Projected energy change by RFO approximation:        -0.0000003514

	Back-transformation to cartesian coordinates...
	Could not converge backtransformation.
	Using first guess instead.

	--- Internal Coordinate Step in ANG or DEG, aJ/ANG or AJ/DEG ---
	 ---------------------------------------------------------------------------
	   Coordinate                Previous        Force       Change         New 
	   ----------                --------       ------       ------       ------
	    1 R(1,4)          =      1.088469    -0.000035     0.000144     1.088612
	    2 R(2,4)          =      1.087518    -0.000076     0.000053     1.087571
	    3 R(3,4)          =      1.088684    -0.000054     0.000121     1.088806
	    4 R(4,7)          =      1.516662     0.000004    -0.000024     1.516638
	    5 R(5,7)          =      1.090739     0.000104     0.000052     1.090791
	    6 R(6,7)          =      1.091591    -0.000074     0.000079     1.091669
	    7 R(7,10)         =      1.517252    -0.000102    -0.000054     1.517198
	    8 R(8,10)         =      1.090215    -0.000210     0.000158     1.090373
	    9 R(9,10)         =      1.090864     0.000165     0.000060     1.090924
	   10 R(10,14)        =      1.523915     0.000065     0.000085     1.524000
	   11 R(11,14)        =      1.087854    -0.000202     0.000109     1.087962
	   12 R(12,14)        =      1.087801     0.000114    -0.000001     1.087799
	   13 R(13,14)        =      1.087447     0.000038     0.000093     1.087541
	   14 B(1,4,2)        =    107.971616    -0.000000    -0.010663   107.960953
	   15 B(1,4,3)        =    107.691629     0.000000    -0.003613   107.688016
	   16 B(1,4,7)        =    110.724744     0.000002     0.026735   110.751479
	   17 B(2,4,3)        =    107.958902     0.000001     0.000097   107.958999
	   18 B(2,4,7)        =    111.697182    -0.000001    -0.012302   111.684880
	   19 B(3,4,7)        =    110.647424    -0.000001    -0.000821   110.646603
	   20 B(4,7,5)        =    109.821114     0.000001     0.018749   109.839863
	   21 B(4,7,6)        =    109.801345    -0.000001    -0.019731   109.781615
	   22 B(4,7,10)       =    112.646706    -0.000001    -0.016487   112.630219
	   23 B(5,7,6)        =    106.469679     0.000000     0.014379   106.484058
	   24 B(5,7,10)       =    108.622613    -0.000001     0.017528   108.640141
	   25 B(6,7,10)       =    109.282861     0.000001    -0.012411   109.270450
	   26 B(7,10,8)       =    109.565763     0.000003    -0.027519   109.538244
	   27 B(7,10,9)       =    108.069050    -0.000004     0.012017   108.081067
	   28 B(7,10,14)      =    112.775420     0.000001     0.007694   112.783114
	   29 B(8,10,9)       =    106.292507     0.000000     0.012393   106.304900
	   30 B(8,10,14)      =    110.206769    -0.000001    -0.032664   110.174105
	   31 B(9,10,14)      =    109.703160     0.000001     0.029379   109.732539
	   32 B(10,14,11)     =    111.106215     0.000000     0.005583   111.111799
	   33 B(10,14,12)     =    111.344418    -0.000003    -0.004857   111.339561
	   34 B(10,14,13)     =    111.256889     0.000002     0.018093   111.274982
	   35 B(11,14,12)     =    107.747934     0.000001    -0.004991   107.742942
	   36 B(11,14,13)     =    108.594988     0.000003    -0.025143   108.569846
	   37 B(12,14,13)     =    106.604268    -0.000003     0.010208   106.614476
	   38 D(1,4,7,5)      =   -178.149841    -0.000000    -0.203179  -178.353020
	   39 D(1,4,7,6)      =    -61.401302    -0.000000    -0.186317   -61.587618
	   40 D(1,4,7,10)     =     60.639706     0.000000    -0.227671    60.412035
	   41 D(2,4,7,5)      =    -57.779009    -0.000000    -0.206716   -57.985725
	   42 D(2,4,7,6)      =     58.969531     0.000000    -0.189854    58.779677
	   43 D(2,4,7,10)     =   -178.989462     0.000000    -0.231208  -179.220670
	   44 D(3,4,7,5)      =     62.522972    -0.000000    -0.215380    62.307591
	   45 D(3,4,7,6)      =    179.271511    -0.000000    -0.198518   179.072993
	   46 D(3,4,7,10)     =    -58.687482    -0.000000    -0.239872   -58.927354
	   47 D(4,7,10,8)     =    -55.185529     0.000000     0.242122   -54.943407
	   48 D(4,7,10,9)     =     60.226928     0.000000     0.248824    60.475752
	   49 D(4,7,10,14)    =   -178.333064     0.000000     0.299054  -178.034009
	   50 D(5,7,10,8)     =   -177.076556     0.000000     0.216906  -176.859650
	   51 D(5,7,10,9)     =    -61.664099     0.000000     0.223608   -61.440491
	   52 D(5,7,10,14)    =     59.775910    -0.000000     0.273838    60.049748
	   53 D(6,7,10,8)     =     67.147865     0.000000     0.196867    67.344733
	   54 D(6,7,10,9)     =   -177.439678     0.000000     0.203569  -177.236109
	   55 D(6,7,10,14)    =    -55.999669    -0.000000     0.253799   -55.745870
	   56 D(7,10,14,11)   =    -31.520834     0.000001     0.035673   -31.485162
	   57 D(7,10,14,12)   =   -151.630034     0.000001     0.041493  -151.588541
	   58 D(7,10,14,13)   =     89.604852     0.000002     0.019901    89.624753
	   59 D(8,10,14,11)   =   -154.310896    -0.000000     0.089907  -154.220989
	   60 D(8,10,14,12)   =     85.579904    -0.000000     0.095728    85.675631
	   61 D(8,10,14,13)   =    -33.185210     0.000001     0.074136   -33.111074
	   62 D(9,10,14,11)   =     88.987791    -0.000000     0.076592    89.064383
	   63 D(9,10,14,12)   =    -31.121409    -0.000000     0.082412   -31.038997
	   64 D(9,10,14,13)   =   -149.886523     0.000001     0.060821  -149.825703
	 ---------------------------------------------------------------------------
	Successfully symmetrized geometry.
	 Forces used to impose fixed constraints are not included.
	  Forces zeroed: 58 

  ==> Convergence Check <==

  Measures of convergence in internal coordinates in au.
  Criteria marked as inactive (o), active & met (*), and active & unmet ( ).
  ---------------------------------------------------------------------------------------------
   Step     Total Energy     Delta E     MAX Force     RMS Force      MAX Disp      RMS Disp   
  ---------------------------------------------------------------------------------------------
    Convergence Criteria    1.00e-06 *    3.00e-04 *             o    1.20e-03 *             o
  ---------------------------------------------------------------------------------------------
      6    -158.15894411    6.21e-07 *    5.18e-05 *    1.95e-05 o    5.22e-03      2.16e-03 o  ~
  ---------------------------------------------------------------------------------------------


  **** Optimization is complete! (in 6 steps) ****

  ==> Optimization Summary <==

  Measures of convergence in internal coordinates in au.
  --------------------------------------------------------------------------------------------------------------- ~
   Step         Total Energy             Delta E       MAX Force       RMS Force        MAX Disp        RMS Disp  ~
  --------------------------------------------------------------------------------------------------------------- ~
      1    -158.154561845632   -158.154561845632      0.01324138      0.00561711      0.02612999      0.01250600  ~
      2    -158.157614964524     -0.003053118892      0.00499939      0.00229953      0.03097333      0.01252408  ~
      3    -158.158662953307     -0.001047988783      0.00172777      0.00066156      0.04331353      0.01252054  ~
      4    -158.158916388801     -0.000253435494      0.00085679      0.00019010      0.03569133      0.01131374  ~
      5    -158.158944736114     -0.000028347313      0.00019082      0.00005627      0.00535494      0.00232799  ~
      6    -158.158944114826      0.000000621288      0.00009917      0.00002308      0.00521948      0.00216042  ~
  --------------------------------------------------------------------------------------------------------------- ~

	Writing optimization data to binary file.
	Final energy is   -158.1589441148257
	Final (previous) structure:
	Cartesian Geometry (in Angstrom)
	    H    -2.3481921249   0.0632840739   0.3375939000
	    H    -2.2068742425   1.6895092544  -0.3206984794
	    H    -1.9246307613   0.2921765376  -1.3530951676
	    C    -1.7815136079   0.6890418539  -0.3494770678
	    H     0.2379853947   1.3509867714  -0.6582018725
	    H    -0.1814469698   1.1065230907   1.0212942832
	    C    -0.3102264557   0.6944878223   0.0186912912
	    H    -0.2573078855  -1.3706903664   0.5938096309
	    H     0.2124174102  -1.0620374880  -1.0584397491
	    C     0.3113977719  -0.6884015482  -0.0383497323
	    H     2.2631005235   0.2446127627   0.1031481807
	    H     2.3241339762  -1.4976337316  -0.1183016152
	    H     1.8904248530  -0.8472621785   1.4408103495
	    C     1.7795351772  -0.6925639462   0.3701500981
	Saving final (previous) structure.
			--------------------------
			 OPTKING Finished Execution 
			--------------------------

    Final optimized geometry and variables:
    Molecular point group: c1
    Full point group: C1

    Geometry (in Angstrom), charge = 0, multiplicity = 1:

    H           -2.348192124901     0.063284073939     0.337593899951
    H           -2.206874242534     1.689509254394    -0.320698479414
    H           -1.924630761260     0.292176537622    -1.353095167638
    C           -1.781513607865     0.689041853862    -0.349477067788
    H            0.237985394697     1.350986771447    -0.658201872525
    H           -0.181446969833     1.106523090732     1.021294283201
    C           -0.310226455726     0.694487822343     0.018691291157
    H           -0.257307885533    -1.370690366427     0.593809630902
    H            0.212417410239    -1.062037488002    -1.058439749109
    C            0.311397771902    -0.688401548174    -0.038349732320
    H            2.263100523463     0.244612762716     0.103148180749
    H            2.324133976179    -1.497633731613    -0.118301615235
    H            1.890424852981    -0.847262178514     1.440810349517
    C            1.779535177238    -0.692563946205     0.370150098136

	Cleaning optimization helper files.

*** Psi4 exiting successfully. Buy a developer a beer!
