
    -----------------------------------------------------------------------
          Psi4: An Open-Source Ab Initio Electronic Structure Package
                               Psi4 1.1 release

                         Git: Rev {HEAD} add49b9 


    R. M. Parrish, L. A. Burns, D. G. A. Smith, A. C. Simmonett,
    A. E. DePrince III, E. G. Hohenstein, U. Bozkaya, A. Yu. Sokolov,
    R. Di Remigio, R. M. Richard, J. F. Gonthier, A. M. James,
    H. R. McAlexander, A. Kumar, M. Saitow, X. Wang, B. P. Pritchard,
    P. Verma, H. F. Schaefer III, K. Patkowski, R. A. King, E. F. Valeev,
    F. A. Evangelista, J. M. Turney, T. D. Crawford, and C. D. Sherrill,
    J. Chem. Theory Comput. in press (2017).
    (doi: 10.1021/acs.jctc.7b00174)

    -----------------------------------------------------------------------


    Psi4 started on: Wednesday, 14 June 2017 02:24PM

    Process ID:  11449
    PSIDATADIR: /cbio/jclab/home/chayas/anaconda/envs/py35/share/psi4
    Memory:     500.0 MiB
    Threads:    1
    
  ==> Input File <==

--------------------------------------------------------------------------

memory 1000 mb

molecule butane {
  symmetry C1
  0 1 
  H      5.422   2.260   -7.702
  H      3.984   3.207   -7.403
  H      4.261   1.733   -6.508
  C      4.382   2.215   -7.454
  H      2.591   1.370   -8.289
  H      3.751   1.898   -9.484
  C      3.631   1.416   -8.537
  H      3.665   -0.647   -7.940
  H      4.104   -0.384   -9.610
  C      4.203   -0.012   -8.612
  H      6.088   -0.983   -8.270
  H      5.791   0.381   -7.220
  H      6.230   0.644   -8.890
  C      5.691   0.009   -8.218
  units Angstrom
}

dih_string = "14 10 7 4 330"
set optking fixed_dihedral = $dih_string

optimize('MP2/aug-cc-pvtz')
--------------------------------------------------------------------------

  Memory set to 953.674 MiB by Python driver.
gradient() will perform analytic gradient computation.

*** tstart() called on gpu-3-9.local
*** at Wed Jun 14 14:24:37 2017

    SCF Algorithm Type (re)set to DF.

*** tstart() called on gpu-3-9.local
*** at Wed Jun 14 14:24:37 2017

   => Loading Basis Set <=

    Name: AUG-CC-PVTZ
    Role: ORBITAL
    Keyword: BASIS
    atoms 1-3, 5-6, 8-9, 11-13 entry H          line    34 file /cbio/jclab/home/chayas/anaconda/envs/py35/share/psi4/basis/aug-cc-pvtz.gbs 
    atoms 4, 7, 10, 14         entry C          line   221 file /cbio/jclab/home/chayas/anaconda/envs/py35/share/psi4/basis/aug-cc-pvtz.gbs 


         ---------------------------------------------------------
                                   SCF
            by Justin Turney, Rob Parrish, and Andy Simmonett
                              RHF Reference
                        1 Threads,    953 MiB Core
         ---------------------------------------------------------

  ==> Geometry <==

    Molecular point group: c1
    Full point group: C1

    Geometry (in Angstrom), charge = 0, multiplicity = 1:

       Center              X                  Y                   Z               Mass       
    ------------   -----------------  -----------------  -----------------  -----------------
           H          0.925823448457     1.345902671209     0.490469602312     1.007825032070
           H         -0.512176551543     2.292902671209     0.789469602312     1.007825032070
           H         -0.235176551543     0.818902671209     1.684469602312     1.007825032070
           C         -0.114176551543     1.300902671209     0.738469602312    12.000000000000
           H         -1.905176551543     0.455902671209    -0.096530397688     1.007825032070
           H         -0.745176551543     0.983902671209    -1.291530397688     1.007825032070
           C         -0.865176551543     0.501902671209    -0.344530397688    12.000000000000
           H         -0.831176551543    -1.561097328791     0.252469602312     1.007825032070
           H         -0.392176551543    -1.298097328791    -1.417530397688     1.007825032070
           C         -0.293176551543    -0.926097328791    -0.419530397688    12.000000000000
           H          1.591823448457    -1.897097328791    -0.077530397688     1.007825032070
           H          1.294823448457    -0.533097328791     0.972469602312     1.007825032070
           H          1.733823448457    -0.270097328791    -0.697530397688     1.007825032070
           C          1.194823448457    -0.905097328791    -0.025530397688    12.000000000000

  Running in c1 symmetry.

  Rotational constants: A =      0.38640  B =      0.20045  C =      0.14894 [cm^-1]
  Rotational constants: A =  11584.07426  B =   6009.46308  C =   4465.01316 [MHz]
  Nuclear repulsion =  136.011435107522743

  Charge       = 0
  Multiplicity = 1
  Electrons    = 34
  Nalpha       = 17
  Nbeta        = 17

  ==> Algorithm <==

  SCF Algorithm Type is DF.
  DIIS enabled.
  MOM disabled.
  Fractional occupation disabled.
  Guess Type is SAD.
  Energy threshold   = 1.00e-10
  Density threshold  = 1.00e-10
  Integral threshold = 0.00e+00

  ==> Primary Basis <==

  Basis Set: AUG-CC-PVTZ
    Blend: AUG-CC-PVTZ
    Number of shells: 146
    Number of basis function: 414
    Number of Cartesian functions: 470
    Spherical Harmonics?: true
    Max angular momentum: 3

   => Loading Basis Set <=

    Name: (AUG-CC-PVTZ AUX)
    Role: JKFIT
    Keyword: DF_BASIS_SCF
    atoms 1-3, 5-6, 8-9, 11-13 entry H          line    69 file /cbio/jclab/home/chayas/anaconda/envs/py35/share/psi4/basis/aug-cc-pvtz-jkfit.gbs 
    atoms 4, 7, 10, 14         entry C          line   161 file /cbio/jclab/home/chayas/anaconda/envs/py35/share/psi4/basis/aug-cc-pvtz-jkfit.gbs 

  ==> Pre-Iterations <==

   -------------------------------------------------------
    Irrep   Nso     Nmo     Nalpha   Nbeta   Ndocc  Nsocc
   -------------------------------------------------------
     A        414     414       0       0       0       0
   -------------------------------------------------------
    Total     414     414      17      17      17       0
   -------------------------------------------------------

  ==> Integral Setup <==

  ==> DFJK: Density-Fitted J/K Matrices <==

    J tasked:                  Yes
    K tasked:                  Yes
    wK tasked:                  No
    OpenMP threads:              1
    Integrals threads:           1
    Memory (MB):               715
    Algorithm:                Core
    Integral Cache:           NONE
    Schwarz Cutoff:          1E-12
    Fitting Condition:       1E-12

   => Auxiliary Basis Set <=

  Basis Set: (AUG-CC-PVTZ AUX)
    Blend: AUG-CC-PVTZ-JKFIT
    Number of shells: 260
    Number of basis function: 876
    Number of Cartesian functions: 1074
    Spherical Harmonics?: true
    Max angular momentum: 4

  Minimum eigenvalue in the overlap matrix is 4.6358007880E-06.
  Using Symmetric Orthogonalization.

  SCF Guess: Superposition of Atomic Densities via on-the-fly atomic UHF.

  ==> Iterations <==

                           Total Energy        Delta E     RMS |[F,P]|

   @DF-RHF iter   0:  -159.19369917531625   -1.59194e+02   9.77044e-03 
   @DF-RHF iter   1:  -157.23443272917788    1.95927e+00   8.48960e-04 
   @DF-RHF iter   2:  -157.32925470648041   -9.48220e-02   2.43510e-04 DIIS
   @DF-RHF iter   3:  -157.33853647938230   -9.28177e-03   8.53380e-05 DIIS
   @DF-RHF iter   4:  -157.33951785498826   -9.81376e-04   2.03984e-05 DIIS
   @DF-RHF iter   5:  -157.33958806318796   -7.02082e-05   3.75305e-06 DIIS
   @DF-RHF iter   6:  -157.33959152321160   -3.46002e-06   7.17952e-07 DIIS
   @DF-RHF iter   7:  -157.33959161891462   -9.57030e-08   2.25521e-07 DIIS
   @DF-RHF iter   8:  -157.33959162607940   -7.16477e-09   5.22967e-08 DIIS
   @DF-RHF iter   9:  -157.33959162654628   -4.66883e-10   1.22889e-08 DIIS
   @DF-RHF iter  10:  -157.33959162657527   -2.89901e-11   2.92373e-09 DIIS
   @DF-RHF iter  11:  -157.33959162657592   -6.53699e-13   8.52877e-10 DIIS
   @DF-RHF iter  12:  -157.33959162657646   -5.40012e-13   2.28673e-10 DIIS
   @DF-RHF iter  13:  -157.33959162657641    5.68434e-14   4.66069e-11 DIIS

  ==> Post-Iterations <==

    Orbital Energies (a.u.)
    -----------------------

    Doubly Occupied:                                                      

       1A    -11.206231     2A    -11.205637     3A    -11.197040  
       4A    -11.196994     5A     -1.076266     6A     -0.968192  
       7A     -0.886465     8A     -0.773581     9A     -0.643611  
      10A     -0.627913    11A     -0.570310    12A     -0.539564  
      13A     -0.527906    14A     -0.509286    15A     -0.462839  
      16A     -0.454736    17A     -0.452373  

    Virtual:                                                              

      18A      0.031683    19A      0.038120    20A      0.039979  
      21A      0.040065    22A      0.058237    23A      0.059603  
      24A      0.061584    25A      0.062352    26A      0.064373  
      27A      0.088094    28A      0.117613    29A      0.121828  
      30A      0.124694    31A      0.125564    32A      0.128294  
      33A      0.133006    34A      0.137983    35A      0.140832  
      36A      0.143241    37A      0.149714    38A      0.162396  
      39A      0.165274    40A      0.173802    41A      0.191963  
      42A      0.195069    43A      0.214247    44A      0.235323  
      45A      0.248067    46A      0.267438    47A      0.279712  
      48A      0.289465    49A      0.292677    50A      0.306825  
      51A      0.309545    52A      0.314187    53A      0.315385  
      54A      0.323310    55A      0.327873    56A      0.328196  
      57A      0.335843    58A      0.347851    59A      0.352830  
      60A      0.355926    61A      0.356346    62A      0.362851  
      63A      0.373017    64A      0.379575    65A      0.386593  
      66A      0.398153    67A      0.412803    68A      0.417912  
      69A      0.420696    70A      0.426366    71A      0.439749  
      72A      0.442070    73A      0.450696    74A      0.456407  
      75A      0.462440    76A      0.464311    77A      0.471492  
      78A      0.473785    79A      0.479302    80A      0.483993  
      81A      0.488270    82A      0.492366    83A      0.497822  
      84A      0.509416    85A      0.514127    86A      0.539603  
      87A      0.542650    88A      0.551121    89A      0.561224  
      90A      0.564745    91A      0.565703    92A      0.573614  
      93A      0.576295    94A      0.589006    95A      0.591690  
      96A      0.604651    97A      0.612376    98A      0.617814  
      99A      0.630952   100A      0.636304   101A      0.647853  
     102A      0.667428   103A      0.670362   104A      0.677010  
     105A      0.693148   106A      0.698922   107A      0.744323  
     108A      0.788125   109A      0.796909   110A      0.805284  
     111A      0.820077   112A      0.827981   113A      0.836217  
     114A      0.840598   115A      0.846842   116A      0.867619  
     117A      0.870727   118A      0.871685   119A      0.878747  
     120A      0.897288   121A      0.899442   122A      0.909313  
     123A      0.919654   124A      0.927617   125A      0.929962  
     126A      0.946102   127A      0.948811   128A      0.958412  
     129A      0.966920   130A      0.982083   131A      0.985026  
     132A      0.997201   133A      0.999757   134A      1.006051  
     135A      1.019826   136A      1.021742   137A      1.037950  
     138A      1.058272   139A      1.071366   140A      1.090460  
     141A      1.090665   142A      1.094737   143A      1.105196  
     144A      1.116659   145A      1.118322   146A      1.130982  
     147A      1.132719   148A      1.149136   149A      1.164065  
     150A      1.164121   151A      1.168191   152A      1.184038  
     153A      1.195343   154A      1.208407   155A      1.215397  
     156A      1.230589   157A      1.244058   158A      1.248065  
     159A      1.249962   160A      1.271213   161A      1.275400  
     162A      1.284603   163A      1.306627   164A      1.317629  
     165A      1.332191   166A      1.350598   167A      1.371085  
     168A      1.376211   169A      1.385270   170A      1.390419  
     171A      1.414066   172A      1.426822   173A      1.431172  
     174A      1.452775   175A      1.468930   176A      1.472040  
     177A      1.484374   178A      1.500005   179A      1.517050  
     180A      1.521606   181A      1.527618   182A      1.568604  
     183A      1.575893   184A      1.580547   185A      1.581508  
     186A      1.597724   187A      1.614297   188A      1.631324  
     189A      1.633640   190A      1.664051   191A      1.680263  
     192A      1.681761   193A      1.689746   194A      1.694230  
     195A      1.700092   196A      1.700212   197A      1.727853  
     198A      1.730256   199A      1.756478   200A      1.763050  
     201A      1.775250   202A      1.782969   203A      1.793914  
     204A      1.807132   205A      1.823188   206A      1.833860  
     207A      1.836830   208A      1.846750   209A      1.851178  
     210A      1.861853   211A      1.883919   212A      1.900190  
     213A      1.923741   214A      1.939026   215A      1.940185  
     216A      1.941567   217A      1.979411   218A      1.981198  
     219A      2.010103   220A      2.017731   221A      2.030679  
     222A      2.049171   223A      2.050853   224A      2.070927  
     225A      2.071264   226A      2.083744   227A      2.104100  
     228A      2.135223   229A      2.143711   230A      2.163799  
     231A      2.177707   232A      2.184159   233A      2.193886  
     234A      2.225943   235A      2.226675   236A      2.268500  
     237A      2.276228   238A      2.300275   239A      2.318510  
     240A      2.321389   241A      2.362842   242A      2.375073  
     243A      2.380494   244A      2.414461   245A      2.442555  
     246A      2.450375   247A      2.464578   248A      2.479445  
     249A      2.496918   250A      2.501053   251A      2.525952  
     252A      2.529013   253A      2.583653   254A      2.587499  
     255A      2.601801   256A      2.678238   257A      2.827171  
     258A      2.865063   259A      2.965906   260A      3.071896  
     261A      3.258369   262A      3.307804   263A      3.307944  
     264A      3.368162   265A      3.394690   266A      3.440277  
     267A      3.443693   268A      3.511053   269A      3.513643  
     270A      3.539451   271A      3.555778   272A      3.570802  
     273A      3.584619   274A      3.604627   275A      3.605589  
     276A      3.653575   277A      3.662383   278A      3.680410  
     279A      3.687887   280A      3.714303   281A      3.716455  
     282A      3.731593   283A      3.766655   284A      3.775025  
     285A      3.776844   286A      3.807051   287A      3.810849  
     288A      3.821469   289A      3.841176   290A      3.864781  
     291A      3.876204   292A      3.889065   293A      3.900263  
     294A      3.917491   295A      3.921043   296A      3.964293  
     297A      3.986231   298A      3.996907   299A      4.009695  
     300A      4.019365   301A      4.029025   302A      4.058531  
     303A      4.058780   304A      4.060207   305A      4.074770  
     306A      4.086185   307A      4.113747   308A      4.128939  
     309A      4.159744   310A      4.162400   311A      4.182074  
     312A      4.210127   313A      4.258988   314A      4.264277  
     315A      4.306977   316A      4.308015   317A      4.313717  
     318A      4.330366   319A      4.360166   320A      4.364827  
     321A      4.369761   322A      4.384454   323A      4.415899  
     324A      4.459218   325A      4.478045   326A      4.492543  
     327A      4.497663   328A      4.560787   329A      4.573221  
     330A      4.618422   331A      4.641434   332A      4.675111  
     333A      4.675569   334A      4.721400   335A      4.724088  
     336A      4.761685   337A      4.775604   338A      4.792295  
     339A      4.823903   340A      4.836419   341A      4.841579  
     342A      4.897925   343A      4.906154   344A      4.929808  
     345A      4.945889   346A      4.966079   347A      4.979419  
     348A      4.992911   349A      5.019034   350A      5.051841  
     351A      5.054168   352A      5.075015   353A      5.098490  
     354A      5.110807   355A      5.138644   356A      5.159131  
     357A      5.174370   358A      5.207598   359A      5.221643  
     360A      5.234356   361A      5.248973   362A      5.328347  
     363A      5.330534   364A      5.363409   365A      5.373145  
     366A      5.391865   367A      5.417043   368A      5.429469  
     369A      5.432550   370A      5.463067   371A      5.470347  
     372A      5.518726   373A      5.552720   374A      5.560723  
     375A      5.578202   376A      5.609190   377A      5.638667  
     378A      5.710844   379A      5.713886   380A      5.740921  
     381A      5.744886   382A      5.763960   383A      5.778675  
     384A      5.832827   385A      5.867495   386A      5.893661  
     387A      5.910859   388A      5.966960   389A      6.000037  
     390A      6.047427   391A      6.120241   392A      6.148227  
     393A      6.172070   394A      6.210395   395A      6.231429  
     396A      6.288056   397A      6.314068   398A      6.356361  
     399A      6.362060   400A      6.396592   401A      6.455395  
     402A      6.497979   403A      6.613904   404A      6.622241  
     405A      6.769885   406A      6.810313   407A      6.896306  
     408A      6.940596   409A      6.962810   410A      7.000644  
     411A     18.168636   412A     18.385256   413A     19.459300  
     414A     19.490245  

    Final Occupation by Irrep:
              A 
    DOCC [    17 ]

  Energy converged.

  @DF-RHF Final Energy:  -157.33959162657641

   => Energetics <=

    Nuclear Repulsion Energy =            136.0114351075227432
    One-Electron Energy =                -480.1041601907561471
    Two-Electron Energy =                 186.7531334566569967
    DFT Exchange-Correlation Energy =       0.0000000000000000
    Empirical Dispersion Energy =           0.0000000000000000
    PCM Polarization Energy =               0.0000000000000000
    EFP Energy =                            0.0000000000000000
    Total Energy =                       -157.3395916265764072



Properties will be evaluated at   0.000000,   0.000000,   0.000000 Bohr

Properties computed using the SCF density matrix

  Nuclear Dipole Moment: (a.u.)
     X:     0.8674      Y:     0.3169      Z:     0.5706

  Electronic Dipole Moment: (a.u.)
     X:    -0.8921      Y:    -0.3264      Z:    -0.5867

  Dipole Moment: (a.u.)
     X:    -0.0248      Y:    -0.0095      Z:    -0.0161     Total:     0.0310

  Dipole Moment: (Debye)
     X:    -0.0630      Y:    -0.0242      Z:    -0.0409     Total:     0.0789


*** tstop() called on gpu-3-9.local at Wed Jun 14 14:26:27 2017
Module time:
	user time   =     108.37 seconds =       1.81 minutes
	system time =       0.82 seconds =       0.01 minutes
	total time  =        110 seconds =       1.83 minutes
Total time:
	user time   =     108.38 seconds =       1.81 minutes
	system time =       0.82 seconds =       0.01 minutes
	total time  =        110 seconds =       1.83 minutes

  //>>>>>>>>>>>>>>>>>>>>>>>>>>>>>>>>>>>//
  //               DFMP2               //
  //<<<<<<<<<<<<<<<<<<<<<<<<<<<<<<<<<<<//

   => Loading Basis Set <=

    Name: (AUG-CC-PVTZ AUX)
    Role: RIFIT
    Keyword: DF_BASIS_MP2
    atoms 1-3, 5-6, 8-9, 11-13 entry H          line    29 file /cbio/jclab/home/chayas/anaconda/envs/py35/share/psi4/basis/aug-cc-pvtz-ri.gbs 
    atoms 4, 7, 10, 14         entry C          line   147 file /cbio/jclab/home/chayas/anaconda/envs/py35/share/psi4/basis/aug-cc-pvtz-ri.gbs 

	 --------------------------------------------------------
	                          DF-MP2                         
	      2nd-Order Density-Fitted Moller-Plesset Theory     
	              RMP2 Wavefunction,   1 Threads             
	                                                         
	        Rob Parrish, Justin Turney, Andy Simmonett,      
	           Ed Hohenstein, and C. David Sherrill          
	 --------------------------------------------------------

   => Auxiliary Basis Set <=

  Basis Set: (AUG-CC-PVTZ AUX)
    Blend: AUG-CC-PVTZ-RI
    Number of shells: 252
    Number of basis function: 884
    Number of Cartesian functions: 1094
    Spherical Harmonics?: true
    Max angular momentum: 4

	 --------------------------------------------------------
	                 NBF =   414, NAUX =   884
	 --------------------------------------------------------
	   CLASS    FOCC     OCC    AOCC    AVIR     VIR    FVIR
	   PAIRS       0      17      17     397     397       0
	 --------------------------------------------------------


         ------------------------------------------------------------
                                     CPHF                           
                                  Rob Parrish                       
         ------------------------------------------------------------

  ==> Geometry <==

    Molecular point group: c1
    Full point group: C1

    Geometry (in Angstrom), charge = 0, multiplicity = 1:

       Center              X                  Y                   Z               Mass       
    ------------   -----------------  -----------------  -----------------  -----------------
           H          0.925823448457     1.345902671209     0.490469602312     1.007825032070
           H         -0.512176551543     2.292902671209     0.789469602312     1.007825032070
           H         -0.235176551543     0.818902671209     1.684469602312     1.007825032070
           C         -0.114176551543     1.300902671209     0.738469602312    12.000000000000
           H         -1.905176551543     0.455902671209    -0.096530397688     1.007825032070
           H         -0.745176551543     0.983902671209    -1.291530397688     1.007825032070
           C         -0.865176551543     0.501902671209    -0.344530397688    12.000000000000
           H         -0.831176551543    -1.561097328791     0.252469602312     1.007825032070
           H         -0.392176551543    -1.298097328791    -1.417530397688     1.007825032070
           C         -0.293176551543    -0.926097328791    -0.419530397688    12.000000000000
           H          1.591823448457    -1.897097328791    -0.077530397688     1.007825032070
           H          1.294823448457    -0.533097328791     0.972469602312     1.007825032070
           H          1.733823448457    -0.270097328791    -0.697530397688     1.007825032070
           C          1.194823448457    -0.905097328791    -0.025530397688    12.000000000000

  Nuclear repulsion =  136.011435107522743
  Reference energy  = -157.339591626576407

  ==> Basis Set <==

  Basis Set: AUG-CC-PVTZ
    Blend: AUG-CC-PVTZ
    Number of shells: 146
    Number of basis function: 414
    Number of Cartesian functions: 470
    Spherical Harmonics?: true
    Max angular momentum: 3

  ==> CGRSolver (by Rob Parrish) <==

   Number of roots    =         1
   Preconditioning    =    JACOBI
   Convergence cutoff =     1E-06
   Maximum iterations =       100

  ==> CPHFRHamiltonian (by Rob Parrish) <== 

  ==> DFJK: Density-Fitted J/K Matrices <==

    J tasked:                  Yes
    K tasked:                  Yes
    wK tasked:                  No
    OpenMP threads:              1
    Integrals threads:           1
    Memory (MB):               715
    Algorithm:                Core
    Integral Cache:           NONE
    Schwarz Cutoff:          1E-12
    Fitting Condition:       1E-12

   => Auxiliary Basis Set <=

  Basis Set: (AUG-CC-PVTZ AUX)
    Blend: AUG-CC-PVTZ-JKFIT
    Number of shells: 260
    Number of basis function: 876
    Number of Cartesian functions: 1074
    Spherical Harmonics?: true
    Max angular momentum: 4

  ==> CPHF Iterations <==

  => Iterations <=

             Iter  Converged  Remaining    Residual
  CGR           1          0          1   8.669E-02
  CGR           2          0          1   1.372E-02
  CGR           3          0          1   3.197E-03
  CGR           4          0          1   7.668E-04
  CGR           5          0          1   1.779E-04
  CGR           6          0          1   3.091E-05
  CGR           7          0          1   5.697E-06
  CGR           8          0          1   1.296E-06
  CGR           9          1          0   1.837E-07

    CGRSolver converged.

  ==> DFCorrGrad: Density-Fitted Correlated Gradients <==

    OpenMP threads:              1
    Integrals threads:           1
    Memory (MB):               715
    Schwarz Cutoff:          0E+00
    Fitting Condition:       1E-12

   => Auxiliary Basis Set <=

  Basis Set: (AUG-CC-PVTZ AUX)
    Blend: AUG-CC-PVTZ-JKFIT
    Number of shells: 260
    Number of basis function: 876
    Number of Cartesian functions: 1074
    Spherical Harmonics?: true
    Max angular momentum: 4

	-----------------------------------------------------------
	 ==================> DF-MP2 Energies <==================== 
	-----------------------------------------------------------
	 Reference Energy          =    -157.3395916265764072 [Eh]
	 Singles Energy            =      -0.0000000000000001 [Eh]
	 Same-Spin Energy          =      -0.1671654820468939 [Eh]
	 Opposite-Spin Energy      =      -0.6415854837270928 [Eh]
	 Correlation Energy        =      -0.8087509657739866 [Eh]
	 Total Energy              =    -158.1483425923503887 [Eh]
	-----------------------------------------------------------
	 ================> DF-SCS-MP2 Energies <================== 
	-----------------------------------------------------------
	 SCS Same-Spin Scale       =       0.3333333333333333 [-]
	 SCS Opposite-Spin Scale   =       1.2000000000000000 [-]
	 SCS Same-Spin Energy      =      -0.0557218273489646 [Eh]
	 SCS Opposite-Spin Energy  =      -0.7699025804725114 [Eh]
	 SCS Correlation Energy    =      -0.8256244078214759 [Eh]
	 SCS Total Energy          =    -158.1652160343978721 [Eh]
	-----------------------------------------------------------


  -Total Gradient:
     Atom            X                  Y                   Z
    ------   -----------------  -----------------  -----------------
       1       -0.007091593939    -0.006215948527    -0.000963774001
       2        0.003417142921    -0.011724236023    -0.003194010266
       3        0.000274292138     0.003385292964    -0.012911372746
       4        0.018896497366     0.002575960310     0.020517550803
       5        0.012630645209    -0.002049397020     0.000588475727
       6        0.000019699405    -0.007011609030     0.011118776696
       7       -0.020798291801     0.008374321630    -0.019069612213
       8        0.006019984315     0.009085127870    -0.006960062454
       9        0.003112098877     0.007786310036     0.010081633578
      10       -0.017266175851    -0.022485213465    -0.006837810617
      11       -0.007290790748     0.010588501816     0.000699831184
      12       -0.005583859243     0.001488727378    -0.007721035926
      13       -0.008554641174    -0.005979319644     0.006412346120
      14        0.022214992523     0.012181481707     0.008239064113


*** tstop() called on gpu-3-9.local at Wed Jun 14 14:34:18 2017
Module time:
	user time   =     568.24 seconds =       9.47 minutes
	system time =       6.47 seconds =       0.11 minutes
	total time  =        581 seconds =       9.68 minutes
Total time:
	user time   =     568.25 seconds =       9.47 minutes
	system time =       6.47 seconds =       0.11 minutes
	total time  =        581 seconds =       9.68 minutes

			-----------------------------------------
			 OPTKING 2.0: for geometry optimizations 
			  - R.A. King,  Bethel University        
			-----------------------------------------

	Internal coordinates to be generated automatically.
	Detected frag 1 with atoms:  1 2 3 4 5 6 7 8 9 10 11 12 13 14
	---Fragment 1 Bond Connectivity---
	 1 : 4
	 2 : 4
	 3 : 4
	 4 : 1 2 3 7
	 5 : 7
	 6 : 7
	 7 : 4 5 6 10
	 8 : 10
	 9 : 10
	 10 : 7 8 9 14
	 11 : 14
	 12 : 14
	 13 : 14
	 14 : 10 11 12 13

	Assuming in current code that numbering for constraints corresponds to unified fragment.
	Fixed dihedral atom list: 
	    14    10     7     4
	---Fragment 1 Geometry and Gradient---
	 H           1.7495527650        2.5433874501        0.9268532249
	 H          -0.9678734141        4.3329580979        1.4918813386
	 H          -0.4444192753        1.5475017781        3.1831862275
	 C          -0.2157624132        2.4583497741        1.3955053058
	 H          -3.6002619172        0.8615311918       -0.1824160151
	 H          -1.4081796031        1.8593065900       -2.4406387439
	 C          -1.6349467390        0.9484585939       -0.6510680961
	 H          -1.5706960505       -2.9500464182        0.4770984052
	 H          -0.7411062782       -2.4530484452       -2.6787442367
	 C          -0.5540233910       -1.7500703238       -0.7927975561
	 H           3.0081103695       -3.5849943988       -0.1465112186
	 H           2.4468617080       -1.0074079536        1.8377012209
	 H           3.2764514804       -0.5104099806       -1.3181414210
	 C           2.2578890947       -1.7103860750       -0.0482454597
	            -0.0070915939       -0.0062159485       -0.0009637740
	             0.0034171429       -0.0117242360       -0.0031940103
	             0.0002742921        0.0033852930       -0.0129113727
	             0.0188964974        0.0025759603        0.0205175508
	             0.0126306452       -0.0020493970        0.0005884757
	             0.0000196994       -0.0070116090        0.0111187767
	            -0.0207982918        0.0083743216       -0.0190696122
	             0.0060199843        0.0090851279       -0.0069600625
	             0.0031120989        0.0077863100        0.0100816336
	            -0.0172661759       -0.0224852135       -0.0068378106
	            -0.0072907907        0.0105885018        0.0006998312
	            -0.0055838592        0.0014887274       -0.0077210359
	            -0.0085546412       -0.0059793196        0.0064123461
	             0.0222149925        0.0121814817        0.0082390641

	Previous optimization step data not found.  Starting new optimization.

	---Fragment 1 Intrafragment Coordinates---
	 - Coordinate -           - BOHR/RAD -       - ANG/DEG -
	 R(1,4)           =         2.022209	       1.070107
	 R(2,4)           =         2.022156	       1.070079
	 R(3,4)           =         2.019339	       1.068588
	 R(4,7)           =         2.912442	       1.541198
	 R(5,7)           =         2.022290	       1.070150
	 R(6,7)           =         2.020799	       1.069361
	 R(7,10)          =         2.910419	       1.540128
	 R(8,10)          =         2.021436	       1.069698
	 R(9,10)          =         2.021379	       1.069668
	 R(10,14)         =         2.909087	       1.539422
	 R(11,14)         =         2.021545	       1.069756
	 R(12,14)         =         2.021555	       1.069761
	 R(13,14)         =         2.022387	       1.070201
	 B(1,4,2)         =         1.910845	     109.483339
	 B(1,4,3)         =         1.911533	     109.522782
	 B(1,4,7)         =         1.909773	     109.421930
	 B(2,4,3)         =         1.911173	     109.502157
	 B(2,4,7)         =         1.910124	     109.442058
	 B(3,4,7)         =         1.910350	     109.454997
	 B(4,7,5)         =         1.910273	     109.450561
	 B(4,7,6)         =         1.911275	     109.508000
	 B(4,7,10)        =         1.911264	     109.507355
	 B(5,7,6)         =         1.910976	     109.490832
	 B(5,7,10)        =         1.909606	     109.412349
	 B(6,7,10)        =         1.910406	     109.458191
	 B(7,10,8)        =         1.910303	     109.452301
	 B(7,10,9)        =         1.910824	     109.482155
	 B(7,10,14)       =         1.911213	     109.504437
	 B(8,10,9)        =         1.910417	     109.458846
	 B(8,10,14)       =         1.910766	     109.478806
	 B(9,10,14)       =         1.910276	     109.450772
	 B(10,14,11)      =         1.910943	     109.488965
	 B(10,14,12)      =         1.911204	     109.503926
	 B(10,14,13)      =         1.911557	     109.524173
	 B(11,14,12)      =         1.910410	     109.458432
	 B(11,14,13)      =         1.910054	     109.438058
	 B(12,14,13)      =         1.909629	     109.413709
	 D(1,4,7,5)       =         3.140756	     179.952084
	 D(1,4,7,6)       =        -1.047442	     -60.014026
	 D(1,4,7,10)      =         1.047454	      60.014718
	 D(2,4,7,5)       =        -1.048612	     -60.081057
	 D(2,4,7,6)       =         1.046374	      59.952833
	 D(2,4,7,10)      =         3.141271	     179.981577
	 D(3,4,7,5)       =         1.045959	      59.929046
	 D(3,4,7,6)       =         3.140946	     179.962936
	 D(3,4,7,10)      =        -1.047343	     -60.008321
	 D(4,7,10,8)      =         1.570996	      90.011424
	 D(4,7,10,9)      =        -2.618144	    -150.008621
	 D(4,7,10,14)     =        -0.523714	     -30.006618
	 D(5,7,10,8)      =        -0.522715	     -29.949338
	 D(5,7,10,9)      =         1.571331	      90.030616
	 D(5,7,10,14)     =        -2.617425	    -149.967380
	 D(6,7,10,8)      =        -2.616761	    -149.929364
	 D(6,7,10,9)      =        -0.522716	     -29.949409
	 D(6,7,10,14)     =         1.571714	      90.052594
	 D(7,10,14,11)    =         3.141408	     179.989448
	 D(7,10,14,12)    =         1.046747	      59.974196
	 D(7,10,14,13)    =        -1.047335	     -60.007849
	 D(8,10,14,11)    =         1.046982	      59.987626
	 D(8,10,14,12)    =        -1.047680	     -60.027626
	 D(8,10,14,13)    =         3.141424	     179.990329
	 D(9,10,14,11)    =        -1.047012	     -59.989345
	 D(9,10,14,12)    =         3.141512	     179.995403
	 D(9,10,14,13)    =         1.047431	      60.013359

	Current energy   :      -158.1483425924

	Generating empirical Hessian (Schlegel '84) for each fragment.
	Adding user-defined constraint: Fragment 1; Coordinate 49:
		Value =    -0.523714; Fixed value    =    -0.523599
		Force =     0.000058; Force constant =     0.500000
	Removing off-diagonal coupling between coordinate 49 and others.
	Taking RFO optimization step.
	Going to follow RFO solution 1.
	Using RFO vector 1.

	Determining step-restricting scale parameter for RS-RFO.
	Maximum step size allowed    0.10000

	 Iter      |step|        alpha        rfo_root  
	------------------------------------------------
	    0     0.39614       1.00000           1
	    1     0.27549       4.25416           1
	    2     0.18988      13.83483           1
	    3     0.13816      32.62607           1
	    4     0.11142      55.64296           1
	    5     0.10158      69.43938           1
	    6     0.10004      72.00271           1
	    7     0.10000      72.06741           1
	------------------------------------------------
	Norm of target step-size    0.10000
	Projected energy change by RFO approximation:        -0.0079476321

	Back-transformation to cartesian coordinates...
	Could not converge backtransformation.
	Using first guess instead.

	--- Internal Coordinate Step in ANG or DEG, aJ/ANG or AJ/DEG ---
	 ---------------------------------------------------------------------------
	   Coordinate                Previous        Force       Change         New 
	   ----------                --------       ------       ------       ------
	    1 R(1,4)          =      1.070107     0.057095     0.005006     1.075113
	    2 R(2,4)          =      1.070079     0.101270     0.008030     1.078109
	    3 R(3,4)          =      1.068588     0.107006     0.007421     1.076010
	    4 R(4,7)          =      1.541198    -0.031011    -0.000476     1.540722
	    5 R(5,7)          =      1.070150     0.099279     0.006931     1.077080
	    6 R(6,7)          =      1.069361     0.107142     0.007178     1.076539
	    7 R(7,10)         =      1.540128     0.120807     0.009013     1.549141
	    8 R(8,10)         =      1.069698     0.105400     0.007065     1.076762
	    9 R(9,10)         =      1.069668     0.102177     0.007125     1.076793
	   10 R(10,14)        =      1.539422    -0.024400     0.000022     1.539444
	   11 R(11,14)        =      1.069756     0.103467     0.008182     1.077938
	   12 R(12,14)        =      1.069761     0.059380     0.005158     1.074919
	   13 R(13,14)        =      1.070201     0.097899     0.006823     1.077024
	   14 B(1,4,2)        =    109.483339    -0.000368    -0.355786   109.127553
	   15 B(1,4,3)        =    109.522782    -0.000237    -0.306101   109.216681
	   16 B(1,4,7)        =    109.421930     0.000522     0.560287   109.982216
	   17 B(2,4,3)        =    109.502157    -0.000250    -0.234913   109.267243
	   18 B(2,4,7)        =    109.442058     0.000111     0.126054   109.568112
	   19 B(3,4,7)        =    109.454997     0.000223     0.206516   109.661512
	   20 B(4,7,5)        =    109.450561    -0.000979    -0.872686   108.577875
	   21 B(4,7,6)        =    109.508000    -0.000837    -0.810347   108.697654
	   22 B(4,7,10)       =    109.507355     0.003120     2.945471   112.452825
	   23 B(5,7,6)        =    109.490832     0.000370     0.227099   109.717930
	   24 B(5,7,10)       =    109.412349    -0.000880    -0.804568   108.607781
	   25 B(6,7,10)       =    109.458191    -0.000793    -0.695266   108.762925
	   26 B(7,10,8)       =    109.452301    -0.000795    -0.697148   108.755153
	   27 B(7,10,9)       =    109.482155    -0.000891    -0.815656   108.666499
	   28 B(7,10,14)      =    109.504437     0.003128     2.952325   112.456762
	   29 B(8,10,9)       =    109.458846     0.000373     0.229459   109.688305
	   30 B(8,10,14)      =    109.478806    -0.000837    -0.808669   108.670137
	   31 B(9,10,14)      =    109.450772    -0.000979    -0.871816   108.578957
	   32 B(10,14,11)     =    109.488965     0.000109     0.124242   109.613206
	   33 B(10,14,12)     =    109.503926     0.000512     0.550491   110.054417
	   34 B(10,14,13)     =    109.524173     0.000212     0.196706   109.720879
	   35 B(11,14,12)     =    109.458432    -0.000363    -0.351808   109.106624
	   36 B(11,14,13)     =    109.438058    -0.000244    -0.230496   109.207563
	   37 B(12,14,13)     =    109.413709    -0.000226    -0.294966   109.118743
	   38 D(1,4,7,5)      =    179.952084     0.000100     0.452642   180.404727
	   39 D(1,4,7,6)      =    -60.014026    -0.000051    -0.272226   -60.286252
	   40 D(1,4,7,10)     =     60.014718     0.000047     0.182255    60.196973
	   41 D(2,4,7,5)      =    -60.081057     0.000086     0.438470   -59.642587
	   42 D(2,4,7,6)      =     59.952833    -0.000066    -0.286399    59.666434
	   43 D(2,4,7,10)     =    179.981577     0.000033     0.168082   180.149660
	   44 D(3,4,7,5)      =     59.929046     0.000062     0.354670    60.283716
	   45 D(3,4,7,6)      =    179.962936    -0.000089    -0.370199   179.592737
	   46 D(3,4,7,10)     =    -60.008321     0.000009     0.084283   -59.924038
	   47 D(4,7,10,8)     =     90.011424     0.000033     0.203070    90.214495
	   48 D(4,7,10,9)     =   -150.008621    -0.000099    -0.419089  -150.427710
	   49 D(4,7,10,14)    =    -30.006618    -0.000060    -0.187173   -30.193791
	   50 D(5,7,10,8)     =    -29.949338    -0.000006    -0.026635   -29.975973
	   51 D(5,7,10,9)     =     90.030616    -0.000138    -0.648795    89.381822
	   52 D(5,7,10,14)    =   -149.967380    -0.000098    -0.416879  -150.384259
	   53 D(6,7,10,8)     =   -149.929364     0.000125     0.589459  -149.339905
	   54 D(6,7,10,9)     =    -29.949409    -0.000007    -0.032701   -29.982110
	   55 D(6,7,10,14)    =     90.052594     0.000032     0.199215    90.251809
	   56 D(7,10,14,11)   =    179.989448     0.000033     0.170681   180.160129
	   57 D(7,10,14,12)   =     59.974196     0.000048     0.185975    60.160171
	   58 D(7,10,14,13)   =    -60.007849     0.000010     0.085448   -59.922401
	   59 D(8,10,14,11)   =     59.987626    -0.000065    -0.284802    59.702824
	   60 D(8,10,14,12)   =    -60.027626    -0.000051    -0.269507   -60.297133
	   61 D(8,10,14,13)   =    179.990329    -0.000089    -0.370035   179.620294
	   62 D(9,10,14,11)   =    -59.989345     0.000085     0.433959   -59.555386
	   63 D(9,10,14,12)   =    179.995403     0.000099     0.449253   180.444656
	   64 D(9,10,14,13)   =     60.013359     0.000061     0.348725    60.362084
	 ---------------------------------------------------------------------------
	Successfully symmetrized geometry.
	 Forces used to impose fixed constraints are not included.
	  Forces zeroed: 49 

  ==> Convergence Check <==

  Measures of convergence in internal coordinates in au.
  Criteria marked as inactive (o), active & met (*), and active & unmet ( ).
  --------------------------------------------------------------------------------------------- ~
   Step     Total Energy     Delta E     MAX Force     RMS Force      MAX Disp      RMS Disp    ~
  --------------------------------------------------------------------------------------------- ~
    Convergence Criteria    1.00e-06 *    3.00e-04 *             o    1.20e-03 *             o  ~
  --------------------------------------------------------------------------------------------- ~
      1    -158.14834259   -1.58e+02      4.11e-02      1.02e-02 o    5.15e-02      1.26e-02 o  ~
  ---------------------------------------------------------------------------------------------

	Writing optimization data to binary file.
	Structure for next step:
	Cartesian Geometry (in Angstrom)
	    H     0.8917952270   1.4553340510   0.5180495712
	    H    -0.5978609786   2.3459362211   0.7740603908
	    H    -0.2661181147   0.8976339998   1.7111102019
	    C    -0.1544966236   1.3635662941   0.7476557580
	    H    -1.9019136888   0.4382227246  -0.0779329671
	    H    -0.7411892950   0.9926690083  -1.2807490071
	    C    -0.8561290234   0.5094330109  -0.3256529566
	    H    -0.8169734476  -1.5629242095   0.2537427286
	    H    -0.3842108212  -1.2759908531  -1.4286751224
	    C    -0.2714085891  -0.9221463007  -0.4179565095
	    H     1.5804095246  -1.9859341631  -0.1264139071
	    H     1.3601007275  -0.6312064805   0.9654298661
	    H     1.7844168879  -0.3419827953  -0.7109062631
	    C     1.2211064933  -0.9729731107  -0.0441873513
			--------------------------
			 OPTKING Finished Execution 
			--------------------------

    Structure for next step:
    Molecular point group: c1
    Full point group: C1

    Geometry (in Angstrom), charge = 0, multiplicity = 1:

    H            0.888619652558     1.454147509793     0.515971341904
    H           -0.601036553026     2.344749679821     0.771982161482
    H           -0.269293689113     0.896447458517     1.709031972567
    C           -0.157672197981     1.362379752895     0.745577528731
    H           -1.905089263223     0.437036183309    -0.080011196348
    H           -0.744364869372     0.991482467091    -1.282827236360
    C           -0.859304597862     0.508246469612    -0.327731185937
    H           -0.820149021978    -1.564110750757     0.251664499257
    H           -0.387386395625    -1.277177394338    -1.430753351688
    C           -0.274584163490    -0.923332841952    -0.420034738833
    H            1.577233950227    -1.987120704312    -0.128492136367
    H            1.356925153085    -0.632393021707     0.963351636849
    H            1.781241313455    -0.343169336575    -0.712984492432
    C            1.217930918935    -0.974159651948    -0.046265580598

gradient() will perform analytic gradient computation.

*** tstart() called on gpu-3-9.local
*** at Wed Jun 14 14:34:18 2017

    SCF Algorithm Type (re)set to DF.

*** tstart() called on gpu-3-9.local
*** at Wed Jun 14 14:34:18 2017

   => Loading Basis Set <=

    Name: AUG-CC-PVTZ
    Role: ORBITAL
    Keyword: BASIS
    atoms 1-3, 5-6, 8-9, 11-13 entry H          line    34 file /cbio/jclab/home/chayas/anaconda/envs/py35/share/psi4/basis/aug-cc-pvtz.gbs 
    atoms 4, 7, 10, 14         entry C          line   221 file /cbio/jclab/home/chayas/anaconda/envs/py35/share/psi4/basis/aug-cc-pvtz.gbs 


         ---------------------------------------------------------
                                   SCF
            by Justin Turney, Rob Parrish, and Andy Simmonett
                              RHF Reference
                        1 Threads,    953 MiB Core
         ---------------------------------------------------------

  ==> Geometry <==

    Molecular point group: c1
    Full point group: C1

    Geometry (in Angstrom), charge = 0, multiplicity = 1:

       Center              X                  Y                   Z               Mass       
    ------------   -----------------  -----------------  -----------------  -----------------
           H          0.888619652558     1.454147509793     0.515971341904     1.007825032070
           H         -0.601036553026     2.344749679821     0.771982161482     1.007825032070
           H         -0.269293689113     0.896447458517     1.709031972567     1.007825032070
           C         -0.157672197981     1.362379752895     0.745577528731    12.000000000000
           H         -1.905089263223     0.437036183309    -0.080011196348     1.007825032070
           H         -0.744364869372     0.991482467091    -1.282827236360     1.007825032070
           C         -0.859304597862     0.508246469612    -0.327731185937    12.000000000000
           H         -0.820149021978    -1.564110750757     0.251664499257     1.007825032070
           H         -0.387386395625    -1.277177394338    -1.430753351688     1.007825032070
           C         -0.274584163490    -0.923332841952    -0.420034738833    12.000000000000
           H          1.577233950227    -1.987120704312    -0.128492136367     1.007825032070
           H          1.356925153085    -0.632393021707     0.963351636849     1.007825032070
           H          1.781241313455    -0.343169336575    -0.712984492432     1.007825032070
           C          1.217930918935    -0.974159651948    -0.046265580598    12.000000000000

  Running in c1 symmetry.

  Rotational constants: A =      0.39618  B =      0.18561  C =      0.14177 [cm^-1]
  Rotational constants: A =  11877.27659  B =   5564.45794  C =   4250.12157 [MHz]
  Nuclear repulsion =  134.308636903266120

  Charge       = 0
  Multiplicity = 1
  Electrons    = 34
  Nalpha       = 17
  Nbeta        = 17

  ==> Algorithm <==

  SCF Algorithm Type is DF.
  DIIS enabled.
  MOM disabled.
  Fractional occupation disabled.
  Guess Type is READ.
  Energy threshold   = 1.00e-10
  Density threshold  = 1.00e-10
  Integral threshold = 0.00e+00

  ==> Primary Basis <==

  Basis Set: AUG-CC-PVTZ
    Blend: AUG-CC-PVTZ
    Number of shells: 146
    Number of basis function: 414
    Number of Cartesian functions: 470
    Spherical Harmonics?: true
    Max angular momentum: 3

   => Loading Basis Set <=

    Name: (AUG-CC-PVTZ AUX)
    Role: JKFIT
    Keyword: DF_BASIS_SCF
    atoms 1-3, 5-6, 8-9, 11-13 entry H          line    69 file /cbio/jclab/home/chayas/anaconda/envs/py35/share/psi4/basis/aug-cc-pvtz-jkfit.gbs 
    atoms 4, 7, 10, 14         entry C          line   161 file /cbio/jclab/home/chayas/anaconda/envs/py35/share/psi4/basis/aug-cc-pvtz-jkfit.gbs 

  Reading orbitals from file 180, no projection.

  ==> Pre-Iterations <==

   -------------------------------------------------------
    Irrep   Nso     Nmo     Nalpha   Nbeta   Ndocc  Nsocc
   -------------------------------------------------------
     A        414     414       0       0       0       0
   -------------------------------------------------------
    Total     414     414      17      17      17       0
   -------------------------------------------------------

  ==> Integral Setup <==

  ==> DFJK: Density-Fitted J/K Matrices <==

    J tasked:                  Yes
    K tasked:                  Yes
    wK tasked:                  No
    OpenMP threads:              1
    Integrals threads:           1
    Memory (MB):               715
    Algorithm:                Core
    Integral Cache:           NONE
    Schwarz Cutoff:          1E-12
    Fitting Condition:       1E-12

   => Auxiliary Basis Set <=

  Basis Set: (AUG-CC-PVTZ AUX)
    Blend: AUG-CC-PVTZ-JKFIT
    Number of shells: 260
    Number of basis function: 876
    Number of Cartesian functions: 1074
    Spherical Harmonics?: true
    Max angular momentum: 4

  Minimum eigenvalue in the overlap matrix is 5.3602172833E-06.
  Using Symmetric Orthogonalization.

  SCF Guess: Orbitals guess was supplied from a previous computation.

  ==> Iterations <==

                           Total Energy        Delta E     RMS |[F,P]|

   @DF-RHF iter   0:  -157.31088038684922   -1.57311e+02   2.70268e-04 
   @DF-RHF iter   1:  -157.34622576933816   -3.53454e-02   6.57000e-05 
   @DF-RHF iter   2:  -157.34671012905304   -4.84360e-04   3.04471e-05 DIIS
   @DF-RHF iter   3:  -157.34679952379489   -8.93947e-05   8.06331e-06 DIIS
   @DF-RHF iter   4:  -157.34681217668984   -1.26529e-05   1.01446e-06 DIIS
   @DF-RHF iter   5:  -157.34681238841728   -2.11727e-07   2.30624e-07 DIIS
   @DF-RHF iter   6:  -157.34681239895323   -1.05360e-08   6.22805e-08 DIIS
   @DF-RHF iter   7:  -157.34681239970578   -7.52550e-10   1.90620e-08 DIIS
   @DF-RHF iter   8:  -157.34681239976626   -6.04814e-11   4.39478e-09 DIIS
   @DF-RHF iter   9:  -157.34681239977084   -4.57590e-12   8.16083e-10 DIIS
   @DF-RHF iter  10:  -157.34681239976936    1.47793e-12   1.53219e-10 DIIS
   @DF-RHF iter  11:  -157.34681239977067   -1.30740e-12   2.74745e-11 DIIS

  ==> Post-Iterations <==

    Orbital Energies (a.u.)
    -----------------------

    Doubly Occupied:                                                      

       1A    -11.209535     2A    -11.208969     3A    -11.201326  
       4A    -11.201285     5A     -1.069641     6A     -0.971679  
       7A     -0.881045     8A     -0.771657     9A     -0.640442  
      10A     -0.619809    11A     -0.571949    12A     -0.533955  
      13A     -0.527653    14A     -0.513503    15A     -0.461171  
      16A     -0.454136    17A     -0.453511  

    Virtual:                                                              

      18A      0.031693    19A      0.038103    20A      0.040118  
      21A      0.040150    22A      0.057889    23A      0.059680  
      24A      0.061543    25A      0.062668    26A      0.064663  
      27A      0.086476    28A      0.117050    29A      0.122788  
      30A      0.125795    31A      0.126027    32A      0.127764  
      33A      0.133292    34A      0.138077    35A      0.140883  
      36A      0.143259    37A      0.150375    38A      0.161294  
      39A      0.166004    40A      0.174293    41A      0.192819  
      42A      0.195000    43A      0.215150    44A      0.230214  
      45A      0.244103    46A      0.265818    47A      0.275332  
      48A      0.288668    49A      0.290763    50A      0.306645  
      51A      0.307827    52A      0.309415    53A      0.314940  
      54A      0.321890    55A      0.327143    56A      0.327614  
      57A      0.335359    58A      0.350083    59A      0.352785  
      60A      0.356454    61A      0.357755    62A      0.362513  
      63A      0.372355    64A      0.378650    65A      0.387622  
      66A      0.395521    67A      0.409759    68A      0.415078  
      69A      0.415765    70A      0.423800    71A      0.438247  
      72A      0.439150    73A      0.445741    74A      0.452293  
      75A      0.459531    76A      0.460604    77A      0.469626  
      78A      0.471906    79A      0.474916    80A      0.479071  
      81A      0.485601    82A      0.490068    83A      0.494853  
      84A      0.503960    85A      0.512866    86A      0.534605  
      87A      0.539104    88A      0.548843    89A      0.555640  
      90A      0.558950    91A      0.566868    92A      0.572635  
      93A      0.573748    94A      0.579321    95A      0.585876  
      96A      0.603756    97A      0.605454    98A      0.613900  
      99A      0.629857   100A      0.631368   101A      0.641798  
     102A      0.658271   103A      0.667941   104A      0.679618  
     105A      0.694652   106A      0.697007   107A      0.744408  
     108A      0.786808   109A      0.793538   110A      0.813161  
     111A      0.819248   112A      0.827478   113A      0.829597  
     114A      0.839547   115A      0.841956   116A      0.865361  
     117A      0.867638   118A      0.869438   119A      0.878289  
     120A      0.893311   121A      0.898663   122A      0.908481  
     123A      0.916613   124A      0.923089   125A      0.928112  
     126A      0.945426   127A      0.945885   128A      0.954340  
     129A      0.970932   130A      0.977923   131A      0.985083  
     132A      0.992037   133A      0.995571   134A      1.002363  
     135A      1.004230   136A      1.013500   137A      1.036817  
     138A      1.054764   139A      1.070249   140A      1.080712  
     141A      1.084590   142A      1.092661   143A      1.103481  
     144A      1.107375   145A      1.112604   146A      1.125025  
     147A      1.125922   148A      1.142778   149A      1.161135  
     150A      1.162047   151A      1.164938   152A      1.172388  
     153A      1.189528   154A      1.203850   155A      1.208611  
     156A      1.219678   157A      1.224383   158A      1.238674  
     159A      1.245611   160A      1.261351   161A      1.263484  
     162A      1.273357   163A      1.303688   164A      1.304195  
     165A      1.335797   166A      1.336430   167A      1.355099  
     168A      1.357959   169A      1.370745   170A      1.373740  
     171A      1.395096   172A      1.419525   173A      1.419757  
     174A      1.436103   175A      1.447708   176A      1.478894  
     177A      1.484893   178A      1.496308   179A      1.507799  
     180A      1.513675   181A      1.526267   182A      1.552281  
     183A      1.557858   184A      1.563297   185A      1.579817  
     186A      1.591905   187A      1.616648   188A      1.623268  
     189A      1.634809   190A      1.659546   191A      1.664469  
     192A      1.678623   193A      1.680333   194A      1.687944  
     195A      1.688340   196A      1.696145   197A      1.707850  
     198A      1.731105   199A      1.735464   200A      1.757153  
     201A      1.768044   202A      1.780257   203A      1.784156  
     204A      1.792570   205A      1.807128   206A      1.809335  
     207A      1.821265   208A      1.825720   209A      1.851280  
     210A      1.855412   211A      1.879525   212A      1.894311  
     213A      1.907139   214A      1.920941   215A      1.928798  
     216A      1.936444   217A      1.968282   218A      1.979978  
     219A      1.999114   220A      2.000957   221A      2.018445  
     222A      2.035302   223A      2.043388   224A      2.056580  
     225A      2.063916   226A      2.081638   227A      2.090946  
     228A      2.106534   229A      2.118738   230A      2.144447  
     231A      2.158187   232A      2.183873   233A      2.200033  
     234A      2.229336   235A      2.239481   236A      2.250889  
     237A      2.281375   238A      2.297092   239A      2.301757  
     240A      2.313468   241A      2.341440   242A      2.351762  
     243A      2.363748   244A      2.383246   245A      2.399411  
     246A      2.420126   247A      2.447386   248A      2.448579  
     249A      2.484026   250A      2.486179   251A      2.526707  
     252A      2.530347   253A      2.583763   254A      2.588314  
     255A      2.594990   256A      2.687998   257A      2.807020  
     258A      2.848603   259A      2.972444   260A      3.063139  
     261A      3.245847   262A      3.268996   263A      3.313314  
     264A      3.361733   265A      3.389686   266A      3.437196  
     267A      3.443379   268A      3.507709   269A      3.513589  
     270A      3.534603   271A      3.550651   272A      3.557596  
     273A      3.563901   274A      3.583233   275A      3.618558  
     276A      3.659189   277A      3.667270   278A      3.679388  
     279A      3.679733   280A      3.687707   281A      3.703320  
     282A      3.712916   283A      3.749112   284A      3.765307  
     285A      3.772696   286A      3.784817   287A      3.808186  
     288A      3.826853   289A      3.829628   290A      3.848411  
     291A      3.861129   292A      3.874559   293A      3.878308  
     294A      3.906462   295A      3.922696   296A      3.937822  
     297A      3.980874   298A      3.988516   299A      3.994915  
     300A      4.007922   301A      4.014683   302A      4.041218  
     303A      4.048059   304A      4.050852   305A      4.069045  
     306A      4.072529   307A      4.100123   308A      4.123494  
     309A      4.148458   310A      4.159742   311A      4.169654  
     312A      4.169724   313A      4.253285   314A      4.258153  
     315A      4.272799   316A      4.287714   317A      4.290060  
     318A      4.311476   319A      4.328349   320A      4.348765  
     321A      4.356594   322A      4.379469   323A      4.399574  
     324A      4.405979   325A      4.435634   326A      4.473500  
     327A      4.486592   328A      4.531625   329A      4.573870  
     330A      4.609408   331A      4.616243   332A      4.637214  
     333A      4.649638   334A      4.680900   335A      4.709673  
     336A      4.727711   337A      4.737604   338A      4.774481  
     339A      4.786943   340A      4.808959   341A      4.844601  
     342A      4.866534   343A      4.877406   344A      4.911403  
     345A      4.927935   346A      4.940416   347A      4.963178  
     348A      4.977227   349A      4.979366   350A      5.006171  
     351A      5.015343   352A      5.051043   353A      5.086607  
     354A      5.094423   355A      5.116553   356A      5.126470  
     357A      5.141325   358A      5.185183   359A      5.199999  
     360A      5.213767   361A      5.247280   362A      5.272404  
     363A      5.306228   364A      5.328905   365A      5.341185  
     366A      5.348907   367A      5.394502   368A      5.399497  
     369A      5.413331   370A      5.413714   371A      5.456042  
     372A      5.474632   373A      5.508424   374A      5.529496  
     375A      5.550820   376A      5.564026   377A      5.582656  
     378A      5.672077   379A      5.689228   380A      5.714362  
     381A      5.721564   382A      5.736782   383A      5.751036  
     384A      5.801017   385A      5.838622   386A      5.865404  
     387A      5.889676   388A      5.934196   389A      5.982782  
     390A      5.994920   391A      6.094368   392A      6.108345  
     393A      6.122177   394A      6.160904   395A      6.213432  
     396A      6.237623   397A      6.288866   398A      6.304043  
     399A      6.316955   400A      6.364091   401A      6.418167  
     402A      6.484989   403A      6.581151   404A      6.595616  
     405A      6.764620   406A      6.779842   407A      6.874270  
     408A      6.881736   409A      6.950447   410A      6.971619  
     411A     17.958868   412A     18.266149   413A     19.098867  
     414A     19.349935  

    Final Occupation by Irrep:
              A 
    DOCC [    17 ]

  Energy converged.

  @DF-RHF Final Energy:  -157.34681239977067

   => Energetics <=

    Nuclear Repulsion Energy =            134.3086369032661196
    One-Electron Energy =                -476.7283662311751868
    Two-Electron Energy =                 185.0729169281383975
    DFT Exchange-Correlation Energy =       0.0000000000000000
    Empirical Dispersion Energy =           0.0000000000000000
    PCM Polarization Energy =               0.0000000000000000
    EFP Energy =                            0.0000000000000000
    Total Energy =                       -157.3468123997706698



Properties will be evaluated at   0.000000,   0.000000,   0.000000 Bohr

Properties computed using the SCF density matrix

  Nuclear Dipole Moment: (a.u.)
     X:     0.8219      Y:     0.2999      Z:     0.5409

  Electronic Dipole Moment: (a.u.)
     X:    -0.8472      Y:    -0.3094      Z:    -0.5574

  Dipole Moment: (a.u.)
     X:    -0.0253      Y:    -0.0095      Z:    -0.0165     Total:     0.0317

  Dipole Moment: (Debye)
     X:    -0.0643      Y:    -0.0241      Z:    -0.0419     Total:     0.0805


*** tstop() called on gpu-3-9.local at Wed Jun 14 14:36:07 2017
Module time:
	user time   =     107.20 seconds =       1.79 minutes
	system time =       1.11 seconds =       0.02 minutes
	total time  =        109 seconds =       1.82 minutes
Total time:
	user time   =     675.54 seconds =      11.26 minutes
	system time =       7.67 seconds =       0.13 minutes
	total time  =        690 seconds =      11.50 minutes

  //>>>>>>>>>>>>>>>>>>>>>>>>>>>>>>>>>>>//
  //               DFMP2               //
  //<<<<<<<<<<<<<<<<<<<<<<<<<<<<<<<<<<<//

   => Loading Basis Set <=

    Name: (AUG-CC-PVTZ AUX)
    Role: RIFIT
    Keyword: DF_BASIS_MP2
    atoms 1-3, 5-6, 8-9, 11-13 entry H          line    29 file /cbio/jclab/home/chayas/anaconda/envs/py35/share/psi4/basis/aug-cc-pvtz-ri.gbs 
    atoms 4, 7, 10, 14         entry C          line   147 file /cbio/jclab/home/chayas/anaconda/envs/py35/share/psi4/basis/aug-cc-pvtz-ri.gbs 

	 --------------------------------------------------------
	                          DF-MP2                         
	      2nd-Order Density-Fitted Moller-Plesset Theory     
	              RMP2 Wavefunction,   1 Threads             
	                                                         
	        Rob Parrish, Justin Turney, Andy Simmonett,      
	           Ed Hohenstein, and C. David Sherrill          
	 --------------------------------------------------------

   => Auxiliary Basis Set <=

  Basis Set: (AUG-CC-PVTZ AUX)
    Blend: AUG-CC-PVTZ-RI
    Number of shells: 252
    Number of basis function: 884
    Number of Cartesian functions: 1094
    Spherical Harmonics?: true
    Max angular momentum: 4

	 --------------------------------------------------------
	                 NBF =   414, NAUX =   884
	 --------------------------------------------------------
	   CLASS    FOCC     OCC    AOCC    AVIR     VIR    FVIR
	   PAIRS       0      17      17     397     397       0
	 --------------------------------------------------------


         ------------------------------------------------------------
                                     CPHF                           
                                  Rob Parrish                       
         ------------------------------------------------------------

  ==> Geometry <==

    Molecular point group: c1
    Full point group: C1

    Geometry (in Angstrom), charge = 0, multiplicity = 1:

       Center              X                  Y                   Z               Mass       
    ------------   -----------------  -----------------  -----------------  -----------------
           H          0.888619652558     1.454147509793     0.515971341904     1.007825032070
           H         -0.601036553026     2.344749679821     0.771982161482     1.007825032070
           H         -0.269293689113     0.896447458517     1.709031972567     1.007825032070
           C         -0.157672197981     1.362379752895     0.745577528731    12.000000000000
           H         -1.905089263223     0.437036183309    -0.080011196348     1.007825032070
           H         -0.744364869372     0.991482467091    -1.282827236360     1.007825032070
           C         -0.859304597862     0.508246469612    -0.327731185937    12.000000000000
           H         -0.820149021978    -1.564110750757     0.251664499257     1.007825032070
           H         -0.387386395625    -1.277177394338    -1.430753351688     1.007825032070
           C         -0.274584163490    -0.923332841952    -0.420034738833    12.000000000000
           H          1.577233950227    -1.987120704312    -0.128492136367     1.007825032070
           H          1.356925153085    -0.632393021707     0.963351636849     1.007825032070
           H          1.781241313455    -0.343169336575    -0.712984492432     1.007825032070
           C          1.217930918935    -0.974159651948    -0.046265580598    12.000000000000

  Nuclear repulsion =  134.308636903266120
  Reference energy  = -157.346812399770670

  ==> Basis Set <==

  Basis Set: AUG-CC-PVTZ
    Blend: AUG-CC-PVTZ
    Number of shells: 146
    Number of basis function: 414
    Number of Cartesian functions: 470
    Spherical Harmonics?: true
    Max angular momentum: 3

  ==> CGRSolver (by Rob Parrish) <==

   Number of roots    =         1
   Preconditioning    =    JACOBI
   Convergence cutoff =     1E-06
   Maximum iterations =       100

  ==> CPHFRHamiltonian (by Rob Parrish) <== 

  ==> DFJK: Density-Fitted J/K Matrices <==

    J tasked:                  Yes
    K tasked:                  Yes
    wK tasked:                  No
    OpenMP threads:              1
    Integrals threads:           1
    Memory (MB):               715
    Algorithm:                Core
    Integral Cache:           NONE
    Schwarz Cutoff:          1E-12
    Fitting Condition:       1E-12

   => Auxiliary Basis Set <=

  Basis Set: (AUG-CC-PVTZ AUX)
    Blend: AUG-CC-PVTZ-JKFIT
    Number of shells: 260
    Number of basis function: 876
    Number of Cartesian functions: 1074
    Spherical Harmonics?: true
    Max angular momentum: 4

  ==> CPHF Iterations <==

  => Iterations <=

             Iter  Converged  Remaining    Residual
  CGR           1          0          1   8.607E-02
  CGR           2          0          1   1.369E-02
  CGR           3          0          1   3.192E-03
  CGR           4          0          1   7.770E-04
  CGR           5          0          1   1.792E-04
  CGR           6          0          1   3.049E-05
  CGR           7          0          1   5.374E-06
  CGR           8          0          1   1.188E-06
  CGR           9          1          0   1.676E-07

    CGRSolver converged.

  ==> DFCorrGrad: Density-Fitted Correlated Gradients <==

    OpenMP threads:              1
    Integrals threads:           1
    Memory (MB):               715
    Schwarz Cutoff:          0E+00
    Fitting Condition:       1E-12

   => Auxiliary Basis Set <=

  Basis Set: (AUG-CC-PVTZ AUX)
    Blend: AUG-CC-PVTZ-JKFIT
    Number of shells: 260
    Number of basis function: 876
    Number of Cartesian functions: 1074
    Spherical Harmonics?: true
    Max angular momentum: 4

	-----------------------------------------------------------
	 ==================> DF-MP2 Energies <==================== 
	-----------------------------------------------------------
	 Reference Energy          =    -157.3468123997706698 [Eh]
	 Singles Energy            =      -0.0000000000000000 [Eh]
	 Same-Spin Energy          =      -0.1661611220962856 [Eh]
	 Opposite-Spin Energy      =      -0.6407579906549101 [Eh]
	 Correlation Energy        =      -0.8069191127511957 [Eh]
	 Total Energy              =    -158.1537315125218583 [Eh]
	-----------------------------------------------------------
	 ================> DF-SCS-MP2 Energies <================== 
	-----------------------------------------------------------
	 SCS Same-Spin Scale       =       0.3333333333333333 [-]
	 SCS Opposite-Spin Scale   =       1.2000000000000000 [-]
	 SCS Same-Spin Energy      =      -0.0553870406987619 [Eh]
	 SCS Opposite-Spin Energy  =      -0.7689095887858921 [Eh]
	 SCS Correlation Energy    =      -0.8242966294846540 [Eh]
	 SCS Total Energy          =    -158.1711090292553195 [Eh]
	-----------------------------------------------------------


  -Total Gradient:
     Atom            X                  Y                   Z
    ------   -----------------  -----------------  -----------------
       1       -0.006028027150    -0.003326939956    -0.000682787048
       2        0.001628569552    -0.005892949539    -0.002076197330
       3       -0.000428972784     0.001267296997    -0.008376168709
       4        0.013023057971     0.008567222924     0.015135640012
       5        0.008161502669    -0.001712248072     0.002930554751
       6        0.001919036062    -0.004545971171     0.006962117002
       7       -0.018857780638     0.006888167150    -0.013562950972
       8        0.004231589561     0.006704723977    -0.002805915307
       9        0.003975021189     0.006097975357     0.005241995659
      10       -0.012974268465    -0.018630896262    -0.007958762836
      11       -0.004049785027     0.005156744953     0.000485495742
      12       -0.003698558307    -0.000279573931    -0.005961442222
      13       -0.006138353520    -0.003441061340     0.003434434365
      14        0.019236968886     0.003147508915     0.007233986894


*** tstop() called on gpu-3-9.local at Wed Jun 14 14:44:12 2017
Module time:
	user time   =     586.71 seconds =       9.78 minutes
	system time =       5.49 seconds =       0.09 minutes
	total time  =        594 seconds =       9.90 minutes
Total time:
	user time   =    1155.05 seconds =      19.25 minutes
	system time =      12.05 seconds =       0.20 minutes
	total time  =       1175 seconds =      19.58 minutes

			-----------------------------------------
			 OPTKING 2.0: for geometry optimizations 
			  - R.A. King,  Bethel University        
			-----------------------------------------

	Previous internal coordinate definitions found.
	---Fragment 1 Geometry and Gradient---
	 H           1.6792477796        2.7479405503        0.9750445286
	 H          -1.1357944811        4.4309347450        1.4588348647
	 H          -0.5088913217        1.6940401891        3.2296023805
	 C          -0.2979572730        2.5745246220        1.4089373401
	 H          -3.6000969662        0.8258786966       -0.1511992487
	 H          -1.4066457461        1.8736303284       -2.4241921525
	 C          -1.6238503547        0.9604466356       -0.6193221866
	 H          -1.5498570397       -2.9557409604        0.4755769810
	 H          -0.7320541953       -2.4135154984       -2.7037319984
	 C          -0.5188888694       -1.7448462008       -0.7937506227
	 H           2.9805402134       -3.7551139241       -0.2428149480
	 H           2.5642169222       -1.1950496194        1.8204707633
	 H           3.3660582590       -0.6484960633       -1.3473454277
	 C           2.3015558856       -1.8408949519       -0.0874292767
	            -0.0060280271       -0.0033269400       -0.0006827870
	             0.0016285696       -0.0058929495       -0.0020761973
	            -0.0004289728        0.0012672970       -0.0083761687
	             0.0130230580        0.0085672229        0.0151356400
	             0.0081615027       -0.0017122481        0.0029305548
	             0.0019190361       -0.0045459712        0.0069621170
	            -0.0188577806        0.0068881671       -0.0135629510
	             0.0042315896        0.0067047240       -0.0028059153
	             0.0039750212        0.0060979754        0.0052419957
	            -0.0129742685       -0.0186308963       -0.0079587628
	            -0.0040497850        0.0051567450        0.0004854957
	            -0.0036985583       -0.0002795739       -0.0059614422
	            -0.0061383535       -0.0034410613        0.0034344344
	             0.0192369689        0.0031475089        0.0072339869

	---Fragment 1 Intrafragment Coordinates---
	 - Coordinate -           - BOHR/RAD -       - ANG/DEG -
	 R(1,4)           =         2.031668	       1.075113
	 R(2,4)           =         2.037331	       1.078109
	 R(3,4)           =         2.033364	       1.076010
	 R(4,7)           =         2.911542	       1.540722
	 R(5,7)           =         2.035387	       1.077080
	 R(6,7)           =         2.034364	       1.076539
	 R(7,10)          =         2.927452	       1.549141
	 R(8,10)          =         2.034786	       1.076762
	 R(9,10)          =         2.034843	       1.076793
	 R(10,14)         =         2.909128	       1.539444
	 R(11,14)         =         2.037007	       1.077938
	 R(12,14)         =         2.031302	       1.074919
	 R(13,14)         =         2.035281	       1.077024
	 B(1,4,2)         =         1.904635	     109.127553
	 B(1,4,3)         =         1.906191	     109.216681
	 B(1,4,7)         =         1.919552	     109.982216
	 B(2,4,3)         =         1.907073	     109.267243
	 B(2,4,7)         =         1.912324	     109.568112
	 B(3,4,7)         =         1.913954	     109.661512
	 B(4,7,5)         =         1.895041	     108.577875
	 B(4,7,6)         =         1.897132	     108.697654
	 B(4,7,10)        =         1.962672	     112.452825
	 B(5,7,6)         =         1.914939	     109.717930
	 B(5,7,10)        =         1.895563	     108.607781
	 B(6,7,10)        =         1.898271	     108.762925
	 B(7,10,8)        =         1.898135	     108.755153
	 B(7,10,9)        =         1.896588	     108.666499
	 B(7,10,14)       =         1.962741	     112.456762
	 B(8,10,9)        =         1.914422	     109.688305
	 B(8,10,14)       =         1.896652	     108.670137
	 B(9,10,14)       =         1.895060	     108.578957
	 B(10,14,11)      =         1.913111	     109.613206
	 B(10,14,12)      =         1.920812	     110.054417
	 B(10,14,13)      =         1.914991	     109.720879
	 B(11,14,12)      =         1.904270	     109.106624
	 B(11,14,13)      =         1.906032	     109.207563
	 B(12,14,13)      =         1.904481	     109.118743
	 D(1,4,7,5)       =        -3.134529	    -179.595273
	 D(1,4,7,6)       =        -1.052194	     -60.286252
	 D(1,4,7,10)      =         1.050635	      60.196973
	 D(2,4,7,5)       =        -1.040960	     -59.642587
	 D(2,4,7,6)       =         1.041376	      59.666434
	 D(2,4,7,10)      =        -3.138981	    -179.850340
	 D(3,4,7,5)       =         1.052149	      60.283716
	 D(3,4,7,6)       =         3.134485	     179.592737
	 D(3,4,7,10)      =        -1.045872	     -59.924038
	 D(4,7,10,8)      =         1.574540	      90.214495
	 D(4,7,10,9)      =        -2.625459	    -150.427710
	 D(4,7,10,14)     =        -0.526981	     -30.193791
	 D(5,7,10,8)      =        -0.523179	     -29.975973
	 D(5,7,10,9)      =         1.560007	      89.381822
	 D(5,7,10,14)     =        -2.624700	    -150.384259
	 D(6,7,10,8)      =        -2.606473	    -149.339905
	 D(6,7,10,9)      =        -0.523287	     -29.982110
	 D(6,7,10,14)     =         1.575191	      90.251809
	 D(7,10,14,11)    =        -3.138798	    -179.839871
	 D(7,10,14,12)    =         1.049993	      60.160171
	 D(7,10,14,13)    =        -1.045843	     -59.922401
	 D(8,10,14,11)    =         1.042011	      59.702824
	 D(8,10,14,12)    =        -1.052384	     -60.297133
	 D(8,10,14,13)    =         3.134966	     179.620294
	 D(9,10,14,11)    =        -1.039438	     -59.555386
	 D(9,10,14,12)    =        -3.133832	    -179.555344
	 D(9,10,14,13)    =         1.053517	      60.362084

	Current energy   :      -158.1537315125

	Energy change for the previous step:
		Projected    :        -0.0079476321
		Actual       :        -0.0053889202

	Performing BFGS update.
	Previous computed or guess Hessian on step 1.
	Steps to be used in Hessian update: 1
	Adding user-defined constraint: Fragment 1; Coordinate 49:
		Value =    -0.526981; Fixed value    =    -0.523600
		Force =     0.001775; Force constant =     0.525000
	Removing off-diagonal coupling between coordinate 49 and others.
	Taking RFO optimization step.
	Going to follow RFO solution 1.
	Using RFO vector 1.

	Determining step-restricting scale parameter for RS-RFO.
	Maximum step size allowed    0.10000

	 Iter      |step|        alpha        rfo_root  
	------------------------------------------------
	    0     0.19115       1.00000           1
	    1     0.15002       4.66371           1
	    2     0.12082      12.84691           1
	    3     0.10541      22.18001           1
	    4     0.10051      26.51264           1
	    5     0.10001      27.00453           1
	------------------------------------------------
	Norm of target step-size    0.10001
	Projected energy change by RFO approximation:        -0.0031699458

	Back-transformation to cartesian coordinates...
	Successfully converged to displaced geometry.

	--- Internal Coordinate Step in ANG or DEG, aJ/ANG or AJ/DEG ---
	 ---------------------------------------------------------------------------
	   Coordinate                Previous        Force       Change         New 
	   ----------                --------       ------       ------       ------
	    1 R(1,4)          =      1.075113     0.049470     0.009135     1.084248
	    2 R(2,4)          =      1.078109     0.050176     0.008095     1.086205
	    3 R(3,4)          =      1.076010     0.065945     0.010611     1.086620
	    4 R(4,7)          =      1.540722    -0.056512    -0.012133     1.528589
	    5 R(5,7)          =      1.077080     0.058801     0.009406     1.086486
	    6 R(6,7)          =      1.076539     0.066012     0.010502     1.087041
	    7 R(7,10)         =      1.549141    -0.011449    -0.007781     1.541360
	    8 R(8,10)         =      1.076762     0.064957     0.010342     1.087104
	    9 R(9,10)         =      1.076793     0.060477     0.009661     1.086454
	   10 R(10,14)        =      1.539444    -0.051875    -0.011178     1.528266
	   11 R(11,14)        =      1.077938     0.051351     0.008274     1.086212
	   12 R(12,14)        =      1.074919     0.050803     0.009338     1.084257
	   13 R(13,14)        =      1.077024     0.060576     0.009799     1.086824
	   14 B(1,4,2)        =    109.127553    -0.000216    -0.617519   108.510033
	   15 B(1,4,3)        =    109.216681    -0.000204    -0.729365   108.487316
	   16 B(1,4,7)        =    109.982216     0.000284     0.822567   110.804784
	   17 B(2,4,3)        =    109.267243    -0.000204    -0.696193   108.571050
	   18 B(2,4,7)        =    109.568112     0.000106     0.353442   109.921555
	   19 B(3,4,7)        =    109.661512     0.000227     0.822555   110.484067
	   20 B(4,7,5)        =    108.577875    -0.000237    -0.056131   108.521744
	   21 B(4,7,6)        =    108.697654    -0.000225    -0.250436   108.447218
	   22 B(4,7,10)       =    112.452825     0.000891     1.232022   113.684847
	   23 B(5,7,6)        =    109.717930    -0.000031    -0.774639   108.943291
	   24 B(5,7,10)       =    108.607781    -0.000226    -0.144277   108.463504
	   25 B(6,7,10)       =    108.762925    -0.000183    -0.067997   108.694928
	   26 B(7,10,8)       =    108.755153    -0.000185    -0.064830   108.690323
	   27 B(7,10,9)       =    108.666499    -0.000234    -0.196583   108.469916
	   28 B(7,10,14)      =    112.456762     0.000896     1.248106   113.704868
	   29 B(8,10,9)       =    109.688305    -0.000029    -0.764763   108.923542
	   30 B(8,10,14)      =    108.670137    -0.000224    -0.244894   108.425243
	   31 B(9,10,14)      =    108.578957    -0.000235    -0.039009   108.539947
	   32 B(10,14,11)     =    109.613206     0.000103     0.351045   109.964251
	   33 B(10,14,12)     =    110.054417     0.000274     0.796427   110.850844
	   34 B(10,14,13)     =    109.720879     0.000217     0.792704   110.513583
	   35 B(11,14,12)     =    109.106624    -0.000211    -0.617958   108.488665
	   36 B(11,14,13)     =    109.207563    -0.000198    -0.674076   108.533487
	   37 B(12,14,13)     =    109.118743    -0.000193    -0.694686   108.424057
	   38 D(1,4,7,5)      =   -179.595273     0.000045     0.704351  -178.890923
	   39 D(1,4,7,6)      =    -60.286252    -0.000024    -0.397374   -60.683627
	   40 D(1,4,7,10)     =     60.196973     0.000018     0.136418    60.333391
	   41 D(2,4,7,5)      =    -59.642587     0.000040     0.681314   -58.961273
	   42 D(2,4,7,6)      =     59.666434    -0.000030    -0.420411    59.246023
[...]
	 R(11,14)         =         2.055781	       1.087873
	 R(12,14)         =         2.052413	       1.086090
	 R(13,14)         =         2.057715	       1.088896
	 B(1,4,2)         =         1.880760	     107.759638
	 B(1,4,3)         =         1.882300	     107.847824
	 B(1,4,7)         =         1.941662	     111.249026
	 B(2,4,3)         =         1.882136	     107.838466
	 B(2,4,7)         =         1.927327	     110.427700
	 B(3,4,7)         =         1.947112	     111.561284
	 B(4,7,5)         =         1.921190	     110.076071
	 B(4,7,6)         =         1.876710	     107.527561
	 B(4,7,10)        =         2.005074	     114.882282
	 B(5,7,6)         =         1.851797	     106.100144
	 B(5,7,10)        =         1.905662	     109.186414
	 B(6,7,10)        =         1.896916	     108.685304
	 B(7,10,8)        =         1.897174	     108.700044
	 B(7,10,9)        =         1.905344	     109.168182
	 B(7,10,14)       =         2.005697	     114.917948
	 B(8,10,9)        =         1.851544	     106.085633
	 B(8,10,14)       =         1.876487	     107.514808
	 B(9,10,14)       =         1.921047	     110.067863
	 B(10,14,11)      =         1.927082	     110.413667
	 B(10,14,12)      =         1.941864	     111.260600
	 B(10,14,13)      =         1.946979	     111.553666
	 B(11,14,12)      =         1.881294	     107.790200
	 B(11,14,13)      =         1.881468	     107.800160
	 B(12,14,13)      =         1.882619	     107.866111
	 D(1,4,7,5)       =        -3.027406	    -173.457614
	 D(1,4,7,6)       =        -1.017582	     -58.303142
	 D(1,4,7,10)      =         1.096358	      62.816687
	 D(2,4,7,5)       =        -0.939849	     -53.849408
	 D(2,4,7,6)       =         1.069975	      61.305064
	 D(2,4,7,10)      =        -3.099270	    -177.575108
	 D(3,4,7,5)       =         1.152997	      66.061847
	 D(3,4,7,6)       =        -3.120364	    -178.783680
	 D(3,4,7,10)      =        -1.006424	     -57.663852
	 D(4,7,10,8)      =         1.574380	      90.205341
	 D(4,7,10,9)      =        -2.696453	    -154.495401
	 D(4,7,10,14)     =        -0.528795	     -30.297708
	 D(5,7,10,8)      =        -0.593264	     -33.991526
	 D(5,7,10,9)      =         1.419088	      81.307731
	 D(5,7,10,14)     =        -2.696439	    -154.494575
	 D(6,7,10,8)      =        -2.605948	    -149.309814
	 D(6,7,10,9)      =        -0.593596	     -34.010557
	 D(6,7,10,14)     =         1.574062	      90.187136
	 D(7,10,14,11)    =        -3.098020	    -177.503450
	 D(7,10,14,12)    =         1.096970	      62.851746
	 D(7,10,14,13)    =        -1.006267	     -57.654844
	 D(8,10,14,11)    =         1.070656	      61.344055
	 D(8,10,14,12)    =        -1.017540	     -58.300750
	 D(8,10,14,13)    =        -3.120777	    -178.807340
	 D(9,10,14,11)    =        -0.938672	     -53.781916
	 D(9,10,14,12)    =        -3.026867	    -173.426720
	 D(9,10,14,13)    =         1.153081	      66.066690

	Current energy   :      -158.1567388276

	Energy change for the previous step:
		Projected    :         0.0000002576
		Actual       :         0.0000000664

	Performing BFGS update.
	Previous computed or guess Hessian on step 1.
	Denominators (dg)(dq) or (dq)(dq) are very small.
	 Skipping Hessian update for step 49.
	Denominators (dg)(dq) or (dq)(dq) are very small.
	 Skipping Hessian update for step 48.
	Steps to be used in Hessian update: 47 46
	Adding user-defined constraint: Fragment 1; Coordinate 49:
		Value =    -0.528795; Fixed value    =    -0.523600
		Force =     0.008961; Force constant =     1.725000
	Removing off-diagonal coupling between coordinate 49 and others.
	Taking RFO optimization step.
	Going to follow RFO solution 1.
	Rejecting RFO root 1 because normalization gives large value.
	Rejecting RFO root 2 because normalization gives large value.
	Rejecting RFO root 3 because normalization gives large value.
	Rejecting RFO root 4 because normalization gives large value.
	Rejecting RFO root 5 because normalization gives large value.
	Rejecting RFO root 6 because normalization gives large value.
	Rejecting RFO root 7 because normalization gives large value.
	Rejecting RFO root 8 because normalization gives large value.
	Using RFO vector 9.

	Determining step-restricting scale parameter for RS-RFO.
	Maximum step size allowed    0.10000

	 Iter      |step|        alpha        rfo_root  
	------------------------------------------------
	    0   123.35345       1.00000           9
	    1    61.70526       1.99930           9
	    2    30.88117       3.99582           9
	    3    15.46914       7.98053           9
	    4     7.76315      15.91670           9
	    5     3.91021      31.65695           9
	    6     1.98385      62.61566           9
	    7     1.02088     122.49799           9
	    8     0.53984     234.52331           9
	    9     0.30021     430.59090           9
	   10     0.18223     731.21305           9
	   11     0.12683    1086.60916           9
	   12     0.10508    1341.89192           9
	   13     0.10026    1415.40939           9
	   14     0.10000    1419.62521           9
	------------------------------------------------
	Norm of target step-size    0.10000
	Projected energy change by RFO approximation:         0.0006085664

	Back-transformation to cartesian coordinates...
	Successfully converged to displaced geometry.

	--- Internal Coordinate Step in ANG or DEG, aJ/ANG or AJ/DEG ---
	 ---------------------------------------------------------------------------
	   Coordinate                Previous        Force       Change         New 
	   ----------                --------       ------       ------       ------
	    1 R(1,4)          =      1.086080     0.000316     0.003275     1.089355
	    2 R(2,4)          =      1.087928    -0.001573     0.007347     1.095275
	    3 R(3,4)          =      1.089055    -0.000219    -0.000570     1.088486
	    4 R(4,7)          =      1.520510    -0.007037    -0.004800     1.515710
	    5 R(5,7)          =      1.088552     0.000975     0.002941     1.091493
	    6 R(6,7)          =      1.092910    -0.008877    -0.003071     1.089839
	    7 R(7,10)         =      1.532004    -0.001967     0.000072     1.532076
	    8 R(8,10)         =      1.092866    -0.008584     0.002213     1.095079
	    9 R(9,10)         =      1.088558     0.001045    -0.006593     1.081965
	   10 R(10,14)        =      1.520414    -0.006596    -0.000112     1.520302
	   11 R(11,14)        =      1.087873    -0.001251     0.000688     1.088561
	   12 R(12,14)        =      1.086090     0.000151    -0.004747     1.081343
	   13 R(13,14)        =      1.088896     0.000733     0.005270     1.094166
	   14 B(1,4,2)        =    107.759638    -0.000000     0.488957   108.248596
	   15 B(1,4,3)        =    107.847824    -0.000001    -1.467344   106.380480
	   16 B(1,4,7)        =    111.249026     0.000006     1.638231   112.887258
	   17 B(2,4,3)        =    107.838466    -0.000016    -1.013306   106.825160
	   18 B(2,4,7)        =    110.427700     0.000005     0.056654   110.484353
	   19 B(3,4,7)        =    111.561284     0.000004     0.163534   111.724818
	   20 B(4,7,5)        =    110.076071    -0.000006    -0.681527   109.394543
	   21 B(4,7,6)        =    107.527561    -0.000002    -0.760876   106.766686
	   22 B(4,7,10)       =    114.882282     0.000006    -0.268956   114.613326
	   23 B(5,7,6)        =    106.100144     0.000002     0.701099   106.801242
	   24 B(5,7,10)       =    109.186414     0.000015     0.209345   109.395759
	   25 B(6,7,10)       =    108.685304    -0.000017     0.877477   109.562781
	   26 B(7,10,8)       =    108.700044    -0.000017     0.462406   109.162450
	   27 B(7,10,9)       =    109.168182     0.000020     0.617661   109.785843
	   28 B(7,10,14)      =    114.917948    -0.000002     0.007735   114.925683
	   29 B(8,10,9)       =    106.085633     0.000001    -0.250850   105.834783
	   30 B(8,10,14)      =    107.514808     0.000003    -0.598817   106.915991
	   31 B(9,10,14)      =    110.067863    -0.000004    -0.279507   109.788356
	   32 B(10,14,11)     =    110.413667     0.000006    -0.513056   109.900611
	   33 B(10,14,12)     =    111.260600     0.000007    -0.268078   110.992522
	   34 B(10,14,13)     =    111.553666     0.000005     0.343766   111.897433
	   35 B(11,14,12)     =    107.790200    -0.000003    -0.483770   107.306431
	   36 B(11,14,13)     =    107.800160    -0.000013     0.932832   108.732992
	   37 B(12,14,13)     =    107.866111    -0.000003    -0.001407   107.864705
	   38 D(1,4,7,5)      =   -173.457614     0.000001    -1.479508  -174.937122
	   39 D(1,4,7,6)      =    -58.303142     0.000001    -1.412766   -59.715907
	   40 D(1,4,7,10)     =     62.816687    -0.000003    -1.020416    61.796271
	   41 D(2,4,7,5)      =    -53.849408     0.000003     0.281393   -53.568015
	   42 D(2,4,7,6)      =     61.305064     0.000003     0.348136    61.653199
	   43 D(2,4,7,10)     =   -177.575108    -0.000002     0.740485  -176.834622
	   44 D(3,4,7,5)      =     66.061847    -0.000000    -0.848698    65.213150
	   45 D(3,4,7,6)      =   -178.783680    -0.000000    -0.781955  -179.565636
	   46 D(3,4,7,10)     =    -57.663852    -0.000005    -0.389605   -58.053458
	   47 D(4,7,10,8)     =     90.205341     0.000004    -0.493042    89.712300
	   48 D(4,7,10,9)     =   -154.495401     0.000005    -0.197418  -154.692819
	   49 D(4,7,10,14)    =    -30.297708     0.000007    -0.067470   -30.365178
	   50 D(5,7,10,8)     =    -33.991526     0.000002     0.437871   -33.553655
	   51 D(5,7,10,9)     =     81.307731     0.000003     0.733495    82.041226
	   52 D(5,7,10,14)    =   -154.494575     0.000005     0.863443  -153.631132
	   53 D(6,7,10,8)     =   -149.309814     0.000002    -1.008501  -150.318315
	   54 D(6,7,10,9)     =    -34.010557     0.000002    -0.712877   -34.723434
	   55 D(6,7,10,14)    =     90.187136     0.000004    -0.582929    89.604207
	   56 D(7,10,14,11)   =   -177.503450    -0.000002    -0.142393  -177.645843
	   57 D(7,10,14,12)   =     62.851746    -0.000004     0.962341    63.814087
	   58 D(7,10,14,13)   =    -57.654844    -0.000005     0.914242   -56.740603
	   59 D(8,10,14,11)   =     61.344055     0.000003    -0.299978    61.044077
	   60 D(8,10,14,12)   =    -58.300750     0.000001     0.804757   -57.495993
	   61 D(8,10,14,13)   =   -178.807340     0.000000     0.756657  -178.050682
	   62 D(9,10,14,11)   =    -53.781916     0.000002     0.462390   -53.319526
	   63 D(9,10,14,12)   =   -173.426720     0.000001     1.567125  -171.859595
	   64 D(9,10,14,13)   =     66.066690     0.000000     1.519025    67.585715
	 ---------------------------------------------------------------------------
	Successfully symmetrized geometry.
	 Forces used to impose fixed constraints are not included.
	  Forces zeroed: 49 

  ==> Convergence Check <==

  Measures of convergence in internal coordinates in au.
  Criteria marked as inactive (o), active & met (*), and active & unmet ( ).
  ---------------------------------------------------------------------------------------------
   Step     Total Energy     Delta E     MAX Force     RMS Force      MAX Disp      RMS Disp   
  ---------------------------------------------------------------------------------------------
    Convergence Criteria    1.00e-06 *    3.00e-04 *             o    1.20e-03 *             o
  ---------------------------------------------------------------------------------------------
     50    -158.15673883    6.64e-08 *    1.08e-03      2.74e-04 o    2.86e-02      1.25e-02 o  ~
  ---------------------------------------------------------------------------------------------


  **** Optimization has failed! (in 50 steps) ****

  ==> Optimization Summary <==

  Measures of convergence in internal coordinates in au.
  --------------------------------------------------------------------------------------------------------------- ~
   Step         Total Energy             Delta E       MAX Force       RMS Force        MAX Disp        RMS Disp  ~
  --------------------------------------------------------------------------------------------------------------- ~
      1    -158.148342592350   -158.148342592350      0.04110641      0.01024779      0.05152779      0.01262984  ~
      2    -158.153731512522     -0.005388920171      0.01177465      0.00418367      0.02596840      0.01254230  ~
      3    -158.155830296638     -0.002098784116      0.00500759      0.00157494      0.04294587      0.01250488  ~
      4    -158.156535592322     -0.000705295684      0.00188885      0.00061252      0.04154641      0.01249292  ~
      5    -158.156767768152     -0.000232175830      0.00049336      0.00018767      0.02614612      0.01249939  ~
      6    -158.156822213713     -0.000054445562      0.00029979      0.00010083      0.01657918      0.00836484  ~
      7    -158.156847774918     -0.000025561205      0.00064069      0.00013885      0.00044776      0.00017452  ~
      8    -158.156847759101      0.000000015818      0.00074531      0.00016005      0.00091030      0.00024763  ~
      9    -158.156847706866      0.000000052235      0.00085912      0.00018647      0.00023763      0.00010344  ~
     10    -158.156847823411     -0.000000116545      0.00098144      0.00021287      0.00038961      0.00011478  ~
     11    -158.156848154946     -0.000000331535      0.00111311      0.00024186      0.00107247      0.00039644  ~
     12    -158.156847287196      0.000000867750      0.00120933      0.00026117      0.00144689      0.00061201  ~
     13    -158.156846080748      0.000001206448      0.00131491      0.00028220      0.00320741      0.00154721  ~
     14    -158.156844927055      0.000001153692      0.00141880      0.00030849      0.00732747      0.00329270  ~
     15    -158.156843310149      0.000001616907      0.00153596      0.00033310      0.01469489      0.00662043  ~
     16    -158.156839882011      0.000003428138      0.00160304      0.00036429      0.00912172      0.00384855  ~
     17    -158.156840836088     -0.000000954077      0.00174346      0.00038694      0.00448723      0.00183004  ~
     18    -158.156842134208     -0.000001298120      0.00177474      0.00038219      0.00385632      0.00172437  ~
     19    -158.156839367698      0.000002766511      0.00182373      0.00039161      0.00176289      0.00081225  ~
     20    -158.156836903237      0.000002464461      0.00183344      0.00039240      0.00036026      0.00009437  ~
     21    -158.156832927601      0.000003975635      0.00181243      0.00038787      0.00042182      0.00010033  ~
     22    -158.156828236964      0.000004690637      0.00176061      0.00037689      0.00052532      0.00012508  ~
     23    -158.156822349960      0.000005887004      0.00166002      0.00035570      0.00059384      0.00013653  ~
     24    -158.156815647862      0.000006702098      0.00152563      0.00032747      0.00063441      0.00015102  ~
     25    -158.156808417887      0.000007229975      0.00136551      0.00029420      0.00061667      0.00014557  ~
     26    -158.156801290424      0.000007127463      0.00120061      0.00026071      0.00054784      0.00013907  ~
     27    -158.156794828754      0.000006461670      0.00105245      0.00023204      0.00044186      0.00013189  ~
     28    -158.156789451867      0.000005376887      0.00093853      0.00021234      0.00030802      0.00012343  ~
     29    -158.156785483025      0.000003968842      0.00087596      0.00020567      0.00027683      0.00010577  ~
     30    -158.156782996070      0.000002486956      0.00086706      0.00021054      0.00034097      0.00015721  ~
     31    -158.156781984625      0.000001011445      0.00090895      0.00022215      0.00043300      0.00021351  ~
     32    -158.156781641797      0.000000342828      0.00097912      0.00024051      0.03278820      0.01248005  ~
     33    -158.155832137041      0.000949504755      0.00986722      0.00267754      0.02705008      0.01248813  ~
     34    -158.156093732524     -0.000261595483      0.00498388      0.00160055      0.03130947      0.01248367  ~
     35    -158.155899475838      0.000194256686      0.00734415      0.00232545      0.02428415      0.01160369  ~
     36    -158.156732036272     -0.000832560434      0.00159288      0.00053307      0.00799857      0.00320076  ~
     37    -158.156790709245     -0.000058672973      0.00199152      0.00046147      0.00393335      0.00152520  ~
     38    -158.156775805758      0.000014903488      0.00140887      0.00035499      0.00283173      0.00123273  ~
     39    -158.156775685538      0.000000120220      0.00139019      0.00036909      0.00264497      0.00101602  ~
     40    -158.156764418785      0.000011266753      0.00098367      0.00028432      0.00247758      0.00110765  ~
     41    -158.156761666132      0.000002752653      0.00102435      0.00031592      0.00315014      0.00140864  ~
     42    -158.156754195595      0.000007470538      0.00074781      0.00025608      0.00515464      0.00235227  ~
     43    -158.156746991804      0.000007203790      0.00160952      0.00036964      0.00522231      0.00230056  ~
     44    -158.156742864629      0.000004127175      0.00081167      0.00023268      0.00275859      0.00118961  ~
     45    -158.156743928816     -0.000001064187      0.00107142      0.00027673      0.00179998      0.00058560  ~
     46    -158.156742449709      0.000001479107      0.00099319      0.00026257      0.00329519      0.00130553  ~
     47    -158.156735587572      0.000006862137      0.00108842      0.00029199      0.00253649      0.00095559  ~
     48    -158.156738916492     -0.000003328920      0.00100180      0.00026189      0.00012781      0.00004631  ~
     49    -158.156738894018      0.000000022474      0.00102213      0.00026824      0.00061413      0.00025797  ~
     50    -158.156738827631      0.000000066387      0.00107753      0.00027801      0.02859253      0.01248853  ~
  --------------------------------------------------------------------------------------------------------------- ~

	Writing optimization data to binary file.
			--------------------------
			 OPTKING Finished Execution 
			--------------------------

    Structure for next step:
    Molecular point group: c1
    Full point group: C1

    Geometry (in Angstrom), charge = 0, multiplicity = 1:

    H            0.893229986254     1.572927354452     0.465848475746
    H           -0.655769344810     2.379903313540     0.753868112538
    H           -0.179180406148     0.990261272223     1.711130359230
    C           -0.156283308415     1.406348639379     0.705571846741
    H           -1.915385774410     0.446255771116    -0.050246305708
    H           -0.775391713158     0.988073368852    -1.264181139453
    C           -0.852419393444     0.501929922318    -0.291823363379
    H           -0.790330304895    -1.557636059945     0.342384017055
    H           -0.486561448182    -1.336447027570    -1.353271004503
    C           -0.275688626705    -0.914742674522    -0.379440371686
    H            1.542437030890    -2.049862132614    -0.209572942329
    H            1.425097537873    -0.736340511627     0.937378308889
    H            1.805165679997    -0.378059962517    -0.741790322817
    C            1.211885771766    -1.020333567262    -0.083989481448

	Cleaning optimization helper files.

PsiException: Could not converge geometry optimization in 50 iterations.


Traceback (most recent call last):
  File "/cbio/jclab/home/chayas/anaconda/envs/py35/bin/psi4", line 248, in <module>
    exec(content)
  File "<string>", line 45, in <module>
  File "/cbio/jclab/home/chayas/anaconda/envs/py35/lib//python3.5/site-packages/psi4/driver/driver.py", line 1160, in optimize
    raise ConvergenceError("""geometry optimization""", n - 1)

ConvergenceError: Could not converge geometry optimization in 50 iterations.

*** Psi4 encountered an error. Buy a developer more coffee!
*** Resources and help at github.com/psi4/psi4.
