
    -----------------------------------------------------------------------
          Psi4: An Open-Source Ab Initio Electronic Structure Package
                               Psi4 1.1 release

                         Git: Rev {HEAD} add49b9 


    R. M. Parrish, L. A. Burns, D. G. A. Smith, A. C. Simmonett,
    A. E. DePrince III, E. G. Hohenstein, U. Bozkaya, A. Yu. Sokolov,
    R. Di Remigio, R. M. Richard, J. F. Gonthier, A. M. James,
    H. R. McAlexander, A. Kumar, M. Saitow, X. Wang, B. P. Pritchard,
    P. Verma, H. F. Schaefer III, K. Patkowski, R. A. King, E. F. Valeev,
    F. A. Evangelista, J. M. Turney, T. D. Crawford, and C. D. Sherrill,
    J. Chem. Theory Comput. in press (2017).
    (doi: 10.1021/acs.jctc.7b00174)

    -----------------------------------------------------------------------


    Psi4 started on: Wednesday, 14 June 2017 02:19PM

    Process ID:  29837
    PSIDATADIR: /cbio/jclab/home/chayas/anaconda/envs/py35/share/psi4
    Memory:     500.0 MiB
    Threads:    1
    
  ==> Input File <==

--------------------------------------------------------------------------

memory 5000 mb

molecule butane {
  symmetry C1
  0 1 
  H      2.018   1.874   -9.881
  H      1.804   0.381   -8.997
  H      1.570   1.914   -8.193
  C      2.142   1.395   -8.932
  H      4.169   2.051   -9.210
  H      3.731   1.788   -7.539
  C      3.631   1.416   -8.537
  H      3.665   -0.647   -7.940
  H      4.104   -0.384   -9.610
  C      4.203   -0.012   -8.612
  H      6.088   -0.983   -8.270
  H      5.791   0.381   -7.220
  H      6.230   0.644   -8.890
  C      5.691   0.009   -8.218
  units Angstrom
}

dih_string = "10 7 4 3 130"
set optking fixed_dihedral = $dih_string

optimize('MP2/aug-cc-pvtz')
--------------------------------------------------------------------------

  Memory set to   4.657 GiB by Python driver.
gradient() will perform analytic gradient computation.

*** tstart() called on gpu-3-8.local
*** at Wed Jun 14 14:19:21 2017

    SCF Algorithm Type (re)set to DF.

*** tstart() called on gpu-3-8.local
*** at Wed Jun 14 14:19:21 2017

   => Loading Basis Set <=

    Name: AUG-CC-PVTZ
    Role: ORBITAL
    Keyword: BASIS
    atoms 1-3, 5-6, 8-9, 11-13 entry H          line    34 file /cbio/jclab/home/chayas/anaconda/envs/py35/share/psi4/basis/aug-cc-pvtz.gbs 
    atoms 4, 7, 10, 14         entry C          line   221 file /cbio/jclab/home/chayas/anaconda/envs/py35/share/psi4/basis/aug-cc-pvtz.gbs 


         ---------------------------------------------------------
                                   SCF
            by Justin Turney, Rob Parrish, and Andy Simmonett
                              RHF Reference
                        1 Threads,   4768 MiB Core
         ---------------------------------------------------------

  ==> Geometry <==

    Molecular point group: c1
    Full point group: C1

    Geometry (in Angstrom), charge = 0, multiplicity = 1:

       Center              X                  Y                   Z               Mass       
    ------------   -----------------  -----------------  -----------------  -----------------
           H         -1.898793382205     1.172017352882    -1.306206617795     1.007825032070
           H         -2.112793382205    -0.320982647118    -0.422206617795     1.007825032070
           H         -2.346793382205     1.212017352882     0.381793382205     1.007825032070
           C         -1.774793382205     0.693017352882    -0.357206617795    12.000000000000
           H          0.252206617795     1.349017352882    -0.635206617795     1.007825032070
           H         -0.185793382205     1.086017352882     1.035793382205     1.007825032070
           C         -0.285793382205     0.714017352882     0.037793382205    12.000000000000
           H         -0.251793382205    -1.348982647118     0.634793382205     1.007825032070
           H          0.187206617795    -1.085982647118    -1.035206617795     1.007825032070
           C          0.286206617795    -0.713982647118    -0.037206617795    12.000000000000
           H          2.171206617795    -1.684982647118     0.304793382205     1.007825032070
           H          1.874206617795    -0.320982647118     1.354793382205     1.007825032070
           H          2.313206617795    -0.057982647118    -0.315206617795     1.007825032070
           C          1.774206617795    -0.692982647118     0.356793382205    12.000000000000

  Running in c1 symmetry.

  Rotational constants: A =      0.76938  B =      0.12465  C =      0.11638 [cm^-1]
  Rotational constants: A =  23065.53325  B =   3736.86271  C =   3489.00579 [MHz]
  Nuclear repulsion =  131.847869639450721

  Charge       = 0
  Multiplicity = 1
  Electrons    = 34
  Nalpha       = 17
  Nbeta        = 17

  ==> Algorithm <==

  SCF Algorithm Type is DF.
  DIIS enabled.
  MOM disabled.
  Fractional occupation disabled.
  Guess Type is SAD.
  Energy threshold   = 1.00e-10
  Density threshold  = 1.00e-10
  Integral threshold = 0.00e+00

  ==> Primary Basis <==

  Basis Set: AUG-CC-PVTZ
    Blend: AUG-CC-PVTZ
    Number of shells: 146
    Number of basis function: 414
    Number of Cartesian functions: 470
    Spherical Harmonics?: true
    Max angular momentum: 3

   => Loading Basis Set <=

    Name: (AUG-CC-PVTZ AUX)
    Role: JKFIT
    Keyword: DF_BASIS_SCF
    atoms 1-3, 5-6, 8-9, 11-13 entry H          line    69 file /cbio/jclab/home/chayas/anaconda/envs/py35/share/psi4/basis/aug-cc-pvtz-jkfit.gbs 
    atoms 4, 7, 10, 14         entry C          line   161 file /cbio/jclab/home/chayas/anaconda/envs/py35/share/psi4/basis/aug-cc-pvtz-jkfit.gbs 

  ==> Pre-Iterations <==

   -------------------------------------------------------
    Irrep   Nso     Nmo     Nalpha   Nbeta   Ndocc  Nsocc
   -------------------------------------------------------
     A        414     414       0       0       0       0
   -------------------------------------------------------
    Total     414     414      17      17      17       0
   -------------------------------------------------------

  ==> Integral Setup <==

  ==> DFJK: Density-Fitted J/K Matrices <==

    J tasked:                  Yes
    K tasked:                  Yes
    wK tasked:                  No
    OpenMP threads:              1
    Integrals threads:           1
    Memory (MB):              3576
    Algorithm:                Core
    Integral Cache:           NONE
    Schwarz Cutoff:          1E-12
    Fitting Condition:       1E-12

   => Auxiliary Basis Set <=

  Basis Set: (AUG-CC-PVTZ AUX)
    Blend: AUG-CC-PVTZ-JKFIT
    Number of shells: 260
    Number of basis function: 876
    Number of Cartesian functions: 1074
    Spherical Harmonics?: true
    Max angular momentum: 4

  Minimum eigenvalue in the overlap matrix is 8.3704482470E-06.
  Using Symmetric Orthogonalization.

  SCF Guess: Superposition of Atomic Densities via on-the-fly atomic UHF.

  ==> Iterations <==

                           Total Energy        Delta E     RMS |[F,P]|

   @DF-RHF iter   0:  -159.31338314240639   -1.59313e+02   9.96485e-03 
   @DF-RHF iter   1:  -157.26275145052296    2.05063e+00   7.99524e-04 
   @DF-RHF iter   2:  -157.33848891969555   -7.57375e-02   2.70068e-04 DIIS
   @DF-RHF iter   3:  -157.34617025191511   -7.68133e-03   1.02196e-04 DIIS
   @DF-RHF iter   4:  -157.34752511933641   -1.35487e-03   1.66507e-05 DIIS
   @DF-RHF iter   5:  -157.34757718132386   -5.20620e-05   3.88430e-06 DIIS
   @DF-RHF iter   6:  -157.34758010683609   -2.92551e-06   8.89096e-07 DIIS
   @DF-RHF iter   7:  -157.34758025161705   -1.44781e-07   2.30857e-07 DIIS
   @DF-RHF iter   8:  -157.34758025979536   -8.17832e-09   5.24723e-08 DIIS
   @DF-RHF iter   9:  -157.34758026040353   -6.08168e-10   1.26748e-08 DIIS
   @DF-RHF iter  10:  -157.34758026044230   -3.87672e-11   3.06904e-09 DIIS
   @DF-RHF iter  11:  -157.34758026044670   -4.40536e-12   7.62552e-10 DIIS
   @DF-RHF iter  12:  -157.34758026044437    2.33058e-12   2.03207e-10 DIIS
   @DF-RHF iter  13:  -157.34758026044469   -3.12639e-13   4.81992e-11 DIIS

  ==> Post-Iterations <==

    Orbital Energies (a.u.)
    -----------------------

    Doubly Occupied:                                                      

       1A    -11.207326     2A    -11.205445     3A    -11.198189  
       4A    -11.197053     5A     -1.070719     6A     -0.980884  
       7A     -0.861130     8A     -0.795574     9A     -0.646317  
      10A     -0.587247    11A     -0.577587    12A     -0.571794  
      13A     -0.511383    14A     -0.504928    15A     -0.471411  
      16A     -0.469644    17A     -0.440429  

    Virtual:                                                              

      18A      0.032361    19A      0.037798    20A      0.039551  
      21A      0.040115    22A      0.058243    23A      0.059382  
      24A      0.060486    25A      0.061108    26A      0.076228  
      27A      0.083346    28A      0.103396    29A      0.112879  
      30A      0.122382    31A      0.130482    32A      0.139588  
      33A      0.142058    34A      0.142594    35A      0.144490  
      36A      0.148418    37A      0.161239    38A      0.165620  
      39A      0.168140    40A      0.173736    41A      0.196319  
      42A      0.201333    43A      0.217982    44A      0.223760  
      45A      0.241439    46A      0.250857    47A      0.255959  
      48A      0.265684    49A      0.281186    50A      0.282955  
      51A      0.290546    52A      0.309958    53A      0.319044  
      54A      0.335199    55A      0.341263    56A      0.345666  
      57A      0.357876    58A      0.359385    59A      0.360042  
      60A      0.365333    61A      0.370152    62A      0.370999  
      63A      0.384141    64A      0.388933    65A      0.389514  
      66A      0.392396    67A      0.395522    68A      0.397318  
      69A      0.406075    70A      0.409711    71A      0.415062  
      72A      0.432813    73A      0.441277    74A      0.444166  
      75A      0.447789    76A      0.463528    77A      0.464411  
      78A      0.465710    79A      0.469180    80A      0.486847  
      81A      0.490916    82A      0.500883    83A      0.509260  
      84A      0.511115    85A      0.518908    86A      0.521528  
      87A      0.525510    88A      0.531857    89A      0.540552  
      90A      0.544542    91A      0.547257    92A      0.557758  
      93A      0.561142    94A      0.577580    95A      0.583813  
      96A      0.588560    97A      0.591993    98A      0.616573  
      99A      0.619824   100A      0.634277   101A      0.641152  
     102A      0.652492   103A      0.677182   104A      0.680731  
     105A      0.697327   106A      0.718907   107A      0.751863  
     108A      0.773994   109A      0.793063   110A      0.815434  
     111A      0.824606   112A      0.829423   113A      0.833378  
     114A      0.838774   115A      0.846346   116A      0.857142  
     117A      0.867968   118A      0.879866   119A      0.884681  
     120A      0.889588   121A      0.893858   122A      0.899906  
     123A      0.918916   124A      0.920693   125A      0.921635  
     126A      0.926424   127A      0.933410   128A      0.941336  
     129A      0.951292   130A      0.954837   131A      0.966729  
     132A      0.976489   133A      0.982231   134A      0.989920  
     135A      0.993270   136A      1.016694   137A      1.025584  
     138A      1.039490   139A      1.046977   140A      1.060847  
     141A      1.074393   142A      1.081107   143A      1.084766  
     144A      1.091189   145A      1.104602   146A      1.106142  
     147A      1.121222   148A      1.142195   149A      1.153397  
     150A      1.158446   151A      1.159958   152A      1.170259  
     153A      1.185172   154A      1.197564   155A      1.217859  
     156A      1.230789   157A      1.237393   158A      1.245218  
     159A      1.252607   160A      1.257527   161A      1.262420  
     162A      1.269960   163A      1.276687   164A      1.293300  
     165A      1.297770   166A      1.307504   167A      1.314325  
     168A      1.318840   169A      1.338860   170A      1.356816  
     171A      1.365602   172A      1.393141   173A      1.406611  
     174A      1.420764   175A      1.435981   176A      1.449572  
     177A      1.465272   178A      1.480079   179A      1.487493  
     180A      1.495204   181A      1.517083   182A      1.530373  
     183A      1.540433   184A      1.553897   185A      1.569835  
     186A      1.594128   187A      1.601909   188A      1.613399  
     189A      1.626704   190A      1.644064   191A      1.650860  
     192A      1.674520   193A      1.681297   194A      1.694035  
     195A      1.704624   196A      1.704874   197A      1.710685  
     198A      1.718708   199A      1.723642   200A      1.728835  
     201A      1.736376   202A      1.753682   203A      1.757748  
     204A      1.767379   205A      1.770492   206A      1.774686  
     207A      1.786116   208A      1.809097   209A      1.825810  
     210A      1.834029   211A      1.857670   212A      1.880177  
     213A      1.907325   214A      1.913780   215A      1.933018  
     216A      1.962854   217A      1.972420   218A      1.973763  
     219A      1.985731   220A      2.008072   221A      2.013649  
     222A      2.019247   223A      2.035514   224A      2.040050  
     225A      2.056502   226A      2.071641   227A      2.072867  
     228A      2.088142   229A      2.101165   230A      2.151300  
     231A      2.166719   232A      2.193485   233A      2.197883  
     234A      2.215488   235A      2.236585   236A      2.261531  
     237A      2.273577   238A      2.281586   239A      2.299617  
     240A      2.309093   241A      2.321651   242A      2.350403  
     243A      2.365222   244A      2.370233   245A      2.374051  
     246A      2.409771   247A      2.424969   248A      2.450811  
     249A      2.462021   250A      2.481436   251A      2.511062  
     252A      2.544646   253A      2.583032   254A      2.612911  
     255A      2.620012   256A      2.672142   257A      2.789436  
     258A      2.867877   259A      2.952615   260A      3.030638  
     261A      3.183312   262A      3.251931   263A      3.284249  
     264A      3.361584   265A      3.397800   266A      3.420386  
     267A      3.439419   268A      3.456742   269A      3.468231  
     270A      3.483490   271A      3.526490   272A      3.557367  
     273A      3.572679   274A      3.582241   275A      3.592685  
     276A      3.600369   277A      3.624589   278A      3.669815  
     279A      3.679138   280A      3.693310   281A      3.698925  
     282A      3.710350   283A      3.716425   284A      3.740705  
     285A      3.748433   286A      3.780832   287A      3.794441  
     288A      3.799964   289A      3.827962   290A      3.845641  
     291A      3.849602   292A      3.864866   293A      3.880833  
     294A      3.891302   295A      3.916973   296A      3.922636  
     297A      3.959369   298A      3.983068   299A      3.984727  
     300A      4.000591   301A      4.010384   302A      4.013559  
     303A      4.029657   304A      4.040780   305A      4.058689  
     306A      4.068680   307A      4.079897   308A      4.101314  
     309A      4.165635   310A      4.178474   311A      4.197399  
     312A      4.209222   313A      4.239685   314A      4.249820  
     315A      4.253397   316A      4.275205   317A      4.285157  
     318A      4.296813   319A      4.314698   320A      4.328592  
     321A      4.358016   322A      4.371579   323A      4.385339  
     324A      4.438675   325A      4.458931   326A      4.478123  
     327A      4.533159   328A      4.541209   329A      4.559549  
     330A      4.577743   331A      4.608534   332A      4.648791  
     333A      4.667355   334A      4.678727   335A      4.703023  
     336A      4.719449   337A      4.744386   338A      4.755492  
     339A      4.773019   340A      4.804716   341A      4.819960  
     342A      4.874516   343A      4.877054   344A      4.887638  
     345A      4.901919   346A      4.931632   347A      4.951844  
     348A      4.973612   349A      4.985965   350A      5.005415  
     351A      5.027710   352A      5.053621   353A      5.065350  
     354A      5.117302   355A      5.140468   356A      5.153347  
     357A      5.193238   358A      5.210091   359A      5.219362  
     360A      5.256034   361A      5.262862   362A      5.280054  
     363A      5.300649   364A      5.331009   365A      5.353079  
     366A      5.359202   367A      5.373375   368A      5.409085  
     369A      5.439124   370A      5.460756   371A      5.468698  
     372A      5.486741   373A      5.511791   374A      5.528510  
     375A      5.563619   376A      5.579657   377A      5.607334  
     378A      5.647934   379A      5.654914   380A      5.686492  
     381A      5.714352   382A      5.745501   383A      5.764744  
     384A      5.805353   385A      5.819321   386A      5.865537  
     387A      5.893931   388A      5.951505   389A      5.987681  
     390A      6.036238   391A      6.080522   392A      6.140211  
     393A      6.163081   394A      6.186669   395A      6.228918  
     396A      6.243244   397A      6.275434   398A      6.338346  
     399A      6.346581   400A      6.374196   401A      6.411475  
     402A      6.501527   403A      6.560899   404A      6.635130  
     405A      6.753429   406A      6.778853   407A      6.824038  
     408A      6.851042   409A      6.876584   410A      6.980151  
     411A     18.086548   412A     18.218261   413A     18.894769  
     414A     19.921991  

    Final Occupation by Irrep:
              A 
    DOCC [    17 ]

  Energy converged.

  @DF-RHF Final Energy:  -157.34758026044469

   => Energetics <=

    Nuclear Repulsion Energy =            131.8478696394507210
    One-Electron Energy =                -471.7967798699110062
    Two-Electron Energy =                 182.6013299700155983
    DFT Exchange-Correlation Energy =       0.0000000000000000
    Empirical Dispersion Energy =           0.0000000000000000
    PCM Polarization Energy =               0.0000000000000000
    EFP Energy =                            0.0000000000000000
    Total Energy =                       -157.3475802604446869



Properties will be evaluated at   0.000000,   0.000000,   0.000000 Bohr

Properties computed using the SCF density matrix

  Nuclear Dipole Moment: (a.u.)
     X:     0.0019      Y:    -0.0008      Z:    -0.0019

  Electronic Dipole Moment: (a.u.)
     X:    -0.0015      Y:     0.0012      Z:     0.0017

  Dipole Moment: (a.u.)
     X:     0.0004      Y:     0.0005      Z:    -0.0002     Total:     0.0006

  Dipole Moment: (Debye)
     X:     0.0010      Y:     0.0012      Z:    -0.0006     Total:     0.0016


*** tstop() called on gpu-3-8.local at Wed Jun 14 14:20:58 2017
Module time:
	user time   =      95.72 seconds =       1.60 minutes
	system time =       0.67 seconds =       0.01 minutes
	total time  =         97 seconds =       1.62 minutes
Total time:
	user time   =      95.73 seconds =       1.60 minutes
	system time =       0.67 seconds =       0.01 minutes
	total time  =         97 seconds =       1.62 minutes

  //>>>>>>>>>>>>>>>>>>>>>>>>>>>>>>>>>>>//
  //               DFMP2               //
  //<<<<<<<<<<<<<<<<<<<<<<<<<<<<<<<<<<<//

   => Loading Basis Set <=

    Name: (AUG-CC-PVTZ AUX)
    Role: RIFIT
    Keyword: DF_BASIS_MP2
    atoms 1-3, 5-6, 8-9, 11-13 entry H          line    29 file /cbio/jclab/home/chayas/anaconda/envs/py35/share/psi4/basis/aug-cc-pvtz-ri.gbs 
    atoms 4, 7, 10, 14         entry C          line   147 file /cbio/jclab/home/chayas/anaconda/envs/py35/share/psi4/basis/aug-cc-pvtz-ri.gbs 

	 --------------------------------------------------------
	                          DF-MP2                         
	      2nd-Order Density-Fitted Moller-Plesset Theory     
	              RMP2 Wavefunction,   1 Threads             
	                                                         
	        Rob Parrish, Justin Turney, Andy Simmonett,      
	           Ed Hohenstein, and C. David Sherrill          
	 --------------------------------------------------------

   => Auxiliary Basis Set <=

  Basis Set: (AUG-CC-PVTZ AUX)
    Blend: AUG-CC-PVTZ-RI
    Number of shells: 252
    Number of basis function: 884
    Number of Cartesian functions: 1094
    Spherical Harmonics?: true
    Max angular momentum: 4

	 --------------------------------------------------------
	                 NBF =   414, NAUX =   884
	 --------------------------------------------------------
	   CLASS    FOCC     OCC    AOCC    AVIR     VIR    FVIR
	   PAIRS       0      17      17     397     397       0
	 --------------------------------------------------------


         ------------------------------------------------------------
                                     CPHF                           
                                  Rob Parrish                       
         ------------------------------------------------------------

  ==> Geometry <==

    Molecular point group: c1
    Full point group: C1

    Geometry (in Angstrom), charge = 0, multiplicity = 1:

       Center              X                  Y                   Z               Mass       
    ------------   -----------------  -----------------  -----------------  -----------------
           H         -1.898793382205     1.172017352882    -1.306206617795     1.007825032070
           H         -2.112793382205    -0.320982647118    -0.422206617795     1.007825032070
           H         -2.346793382205     1.212017352882     0.381793382205     1.007825032070
           C         -1.774793382205     0.693017352882    -0.357206617795    12.000000000000
           H          0.252206617795     1.349017352882    -0.635206617795     1.007825032070
           H         -0.185793382205     1.086017352882     1.035793382205     1.007825032070
           C         -0.285793382205     0.714017352882     0.037793382205    12.000000000000
           H         -0.251793382205    -1.348982647118     0.634793382205     1.007825032070
           H          0.187206617795    -1.085982647118    -1.035206617795     1.007825032070
           C          0.286206617795    -0.713982647118    -0.037206617795    12.000000000000
           H          2.171206617795    -1.684982647118     0.304793382205     1.007825032070
           H          1.874206617795    -0.320982647118     1.354793382205     1.007825032070
           H          2.313206617795    -0.057982647118    -0.315206617795     1.007825032070
           C          1.774206617795    -0.692982647118     0.356793382205    12.000000000000

  Nuclear repulsion =  131.847869639450721
  Reference energy  = -157.347580260444687

  ==> Basis Set <==

  Basis Set: AUG-CC-PVTZ
    Blend: AUG-CC-PVTZ
    Number of shells: 146
    Number of basis function: 414
    Number of Cartesian functions: 470
    Spherical Harmonics?: true
    Max angular momentum: 3

  ==> CGRSolver (by Rob Parrish) <==

   Number of roots    =         1
   Preconditioning    =    JACOBI
   Convergence cutoff =     1E-06
   Maximum iterations =       100

  ==> CPHFRHamiltonian (by Rob Parrish) <== 

  ==> DFJK: Density-Fitted J/K Matrices <==

    J tasked:                  Yes
    K tasked:                  Yes
    wK tasked:                  No
    OpenMP threads:              1
    Integrals threads:           1
    Memory (MB):              3576
    Algorithm:                Core
    Integral Cache:           NONE
    Schwarz Cutoff:          1E-12
    Fitting Condition:       1E-12

   => Auxiliary Basis Set <=

  Basis Set: (AUG-CC-PVTZ AUX)
    Blend: AUG-CC-PVTZ-JKFIT
    Number of shells: 260
    Number of basis function: 876
    Number of Cartesian functions: 1074
    Spherical Harmonics?: true
    Max angular momentum: 4

  ==> CPHF Iterations <==

  => Iterations <=

             Iter  Converged  Remaining    Residual
  CGR           1          0          1   8.174E-02
  CGR           2          0          1   1.314E-02
  CGR           3          0          1   3.417E-03
  CGR           4          0          1   8.054E-04
  CGR           5          0          1   1.186E-04
  CGR           6          0          1   2.157E-05
  CGR           7          0          1   4.108E-06
  CGR           8          0          1   1.084E-06
  CGR           9          1          0   2.809E-07

    CGRSolver converged.

  ==> DFCorrGrad: Density-Fitted Correlated Gradients <==

    OpenMP threads:              1
    Integrals threads:           1
    Memory (MB):              3576
    Schwarz Cutoff:          0E+00
    Fitting Condition:       1E-12

   => Auxiliary Basis Set <=

  Basis Set: (AUG-CC-PVTZ AUX)
    Blend: AUG-CC-PVTZ-JKFIT
    Number of shells: 260
    Number of basis function: 876
    Number of Cartesian functions: 1074
    Spherical Harmonics?: true
    Max angular momentum: 4

	-----------------------------------------------------------
	 ==================> DF-MP2 Energies <==================== 
	-----------------------------------------------------------
	 Reference Energy          =    -157.3475802604446869 [Eh]
	 Singles Energy            =      -0.0000000000000000 [Eh]
	 Same-Spin Energy          =      -0.1654792883066596 [Eh]
	 Opposite-Spin Energy      =      -0.6394484524176144 [Eh]
	 Correlation Energy        =      -0.8049277407242740 [Eh]
	 Total Energy              =    -158.1525080011689681 [Eh]
	-----------------------------------------------------------
	 ================> DF-SCS-MP2 Energies <================== 
	-----------------------------------------------------------
	 SCS Same-Spin Scale       =       0.3333333333333333 [-]
	 SCS Opposite-Spin Scale   =       1.2000000000000000 [-]
	 SCS Same-Spin Energy      =      -0.0551597627688865 [Eh]
	 SCS Opposite-Spin Energy  =      -0.7673381429011372 [Eh]
	 SCS Correlation Energy    =      -0.8224979056700238 [Eh]
	 SCS Total Energy          =    -158.1700781661147062 [Eh]
	-----------------------------------------------------------


  -Total Gradient:
     Atom            X                  Y                   Z
    ------   -----------------  -----------------  -----------------
       1        0.006067633595    -0.003421904735     0.009776248997
       2        0.006734243117     0.008954080196     0.001038676125
       3        0.010888198401    -0.005485562798    -0.005114886058
       4       -0.019636780420    -0.005439041175    -0.005356515218
       5       -0.008817201848    -0.007754934203     0.004489138980
       6       -0.004796644587    -0.004659573946    -0.010960462052
       7        0.016967205291     0.030086837720     0.009097973454
       8        0.008191306018     0.007976159484    -0.006395776542
       9        0.003614210130     0.005522371929     0.011721346703
      10       -0.024495604502    -0.031607365874    -0.010715352233
      11       -0.008461981042     0.010078324583    -0.000655436864
      12       -0.003163831940    -0.004061177281    -0.011007024976
      13       -0.007623959990    -0.006595529529     0.006207596937
      14        0.024533207780     0.006407315628     0.007874472749


*** tstop() called on gpu-3-8.local at Wed Jun 14 14:27:32 2017
Module time:
	user time   =     485.96 seconds =       8.10 minutes
	system time =       4.71 seconds =       0.08 minutes
	total time  =        491 seconds =       8.18 minutes
Total time:
	user time   =     485.97 seconds =       8.10 minutes
	system time =       4.71 seconds =       0.08 minutes
	total time  =        491 seconds =       8.18 minutes

			-----------------------------------------
			 OPTKING 2.0: for geometry optimizations 
			  - R.A. King,  Bethel University        
			-----------------------------------------

	Internal coordinates to be generated automatically.
	Detected frag 1 with atoms:  1 2 3 4 5 6 7 8 9 10 11 12 13 14
	---Fragment 1 Bond Connectivity---
	 1 : 4
	 2 : 4
	 3 : 4
	 4 : 1 2 3 7
	 5 : 7
	 6 : 7
	 7 : 4 5 6 10
	 8 : 10
	 9 : 10
	 10 : 7 8 9 14
	 11 : 14
	 12 : 14
	 13 : 14
	 14 : 10 11 12 13

	Assuming in current code that numbering for constraints corresponds to unified fragment.
	Fixed dihedral atom list: 
	    10     7     4     3
	---Fragment 1 Geometry and Gradient---
	 H          -3.5881994753        2.2147918199       -2.4683727806
	 H          -3.9926008677       -0.6065692965       -0.7978548791
	 H          -4.4347967828        2.2903808653        0.7214849317
	 C          -3.3538734348        1.3096130023       -0.6750226805
	 H           0.4766014365        2.5492733455       -1.2003665454
	 H          -0.3510986097        2.0522753725        1.9573658226
	 C          -0.5400712230        1.3492972511        0.0714191420
	 H          -0.4758205344       -2.5492077611        1.1995856433
	 H           0.3537692379       -2.0522097881       -1.9562569986
	 C           0.5408521251       -1.3492316667       -0.0703103180
	 H           4.1029858855       -3.1841557417        0.5759760195
	 H           3.5417372241       -0.6065692965        2.5601884590
	 H           4.3713269964       -0.1095713235       -0.5956541829
	 C           3.3527646108       -1.3095474179        0.6742417784
	             0.0060676336       -0.0034219047        0.0097762490
	             0.0067342431        0.0089540802        0.0010386761
	             0.0108881984       -0.0054855628       -0.0051148861
	            -0.0196367804       -0.0054390412       -0.0053565152
	            -0.0088172018       -0.0077549342        0.0044891390
	            -0.0047966446       -0.0046595739       -0.0109604621
	             0.0169672053        0.0300868377        0.0090979735
	             0.0081913060        0.0079761595       -0.0063957765
	             0.0036142101        0.0055223719        0.0117213467
	            -0.0244956045       -0.0316073659       -0.0107153522
	            -0.0084619810        0.0100783246       -0.0006554369
	            -0.0031638319       -0.0040611773       -0.0110070250
	            -0.0076239600       -0.0065955295        0.0062075969
	             0.0245332078        0.0064073156        0.0078744727

	Previous optimization step data not found.  Starting new optimization.

	---Fragment 1 Intrafragment Coordinates---
	 - Coordinate -           - BOHR/RAD -       - ANG/DEG -
	 R(1,4)           =         2.022464	       1.070242
	 R(2,4)           =         2.023565	       1.070824
	 R(3,4)           =         2.020033	       1.068956
	 R(4,7)           =         2.911397	       1.540645
	 R(5,7)           =         2.022623	       1.070326
	 R(6,7)           =         2.021555	       1.069761
	 R(7,10)          =         2.910419	       1.540128
	 R(8,10)          =         2.021436	       1.069698
	 R(9,10)          =         2.021379	       1.069668
	 R(10,14)         =         2.909087	       1.539422
	 R(11,14)         =         2.021545	       1.069756
	 R(12,14)         =         2.021555	       1.069761
	 R(13,14)         =         2.022387	       1.070201
	 B(1,4,2)         =         1.910721	     109.476270
	 B(1,4,3)         =         1.911037	     109.494326
	 B(1,4,7)         =         1.910512	     109.464255
	 B(2,4,3)         =         1.910087	     109.439922
	 B(2,4,7)         =         1.910846	     109.483410
	 B(3,4,7)         =         1.910597	     109.469141
	 B(4,7,5)         =         1.909937	     109.431343
	 B(4,7,6)         =         1.911630	     109.528316
	 B(4,7,10)        =         1.911154	     109.501062
	 B(5,7,6)         =         1.910605	     109.469614
	 B(5,7,10)        =         1.910047	     109.437654
	 B(6,7,10)        =         1.910425	     109.459295
	 B(7,10,8)        =         1.910303	     109.452301
	 B(7,10,9)        =         1.910824	     109.482155
	 B(7,10,14)       =         1.911213	     109.504437
	 B(8,10,9)        =         1.910417	     109.458846
	 B(8,10,14)       =         1.910766	     109.478806
	 B(9,10,14)       =         1.910276	     109.450772
	 B(10,14,11)      =         1.910943	     109.488965
	 B(10,14,12)      =         1.911204	     109.503926
	 B(10,14,13)      =         1.911557	     109.524173
	 B(11,14,12)      =         1.910410	     109.458432
	 B(11,14,13)      =         1.910054	     109.438058
	 B(12,14,13)      =         1.909629	     109.413709
	 D(1,4,7,5)       =         0.174167	       9.979038
	 D(1,4,7,6)       =         2.268711	     129.987590
	 D(1,4,7,10)      =        -1.919403	    -109.973702
	 D(2,4,7,5)       =         2.268726	     129.988421
	 D(2,4,7,6)       =        -1.919915	    -110.003027
	 D(2,4,7,10)      =         0.175156	      10.035681
	 D(3,4,7,5)       =        -1.920625	    -110.043721
	 D(3,4,7,6)       =         0.173919	       9.964831
	 D(3,4,7,10)      =         2.268990	     130.003539
	 D(4,7,10,8)      =        -1.047368	     -60.009777
	 D(4,7,10,9)      =         1.046677	      59.970178
	 D(4,7,10,14)     =         3.141107	     179.972182
	 D(5,7,10,8)      =        -3.140871	    -179.958653
	 D(5,7,10,9)      =        -1.046826	     -59.978698
	 D(5,7,10,14)     =         1.047604	      60.023306
	 D(6,7,10,8)      =         1.048439	      60.071149
	 D(6,7,10,9)      =        -3.140701	    -179.948896
	 D(6,7,10,14)     =        -1.046271	     -59.946893
	 D(7,10,14,11)    =         3.141408	     179.989448
	 D(7,10,14,12)    =         1.046747	      59.974196
	 D(7,10,14,13)    =        -1.047335	     -60.007849
	 D(8,10,14,11)    =         1.046982	      59.987626
	 D(8,10,14,12)    =        -1.047680	     -60.027626
	 D(8,10,14,13)    =         3.141424	     179.990329
	 D(9,10,14,11)    =        -1.047012	     -59.989345
	 D(9,10,14,12)    =         3.141512	     179.995403
	 D(9,10,14,13)    =         1.047431	      60.013359

	Current energy   :      -158.1525080012

	Generating empirical Hessian (Schlegel '84) for each fragment.
	Adding user-defined constraint: Fragment 1; Coordinate 46:
		Value =     2.268990; Fixed value    =     2.268928
		Force =    -0.000031; Force constant =     0.500000
	Removing off-diagonal coupling between coordinate 46 and others.
	Taking RFO optimization step.
	Going to follow RFO solution 1.
	Using RFO vector 1.

	Determining step-restricting scale parameter for RS-RFO.
	Maximum step size allowed    0.10000

	 Iter      |step|        alpha        rfo_root  
	------------------------------------------------
	    0     0.20852       1.00000           1
	    1     0.15809       6.79228           1
	    2     0.12398      18.97169           1
	    3     0.10624      32.67222           1
	    4     0.10060      39.06357           1
	    5     0.10001      39.80863           1
	------------------------------------------------
	Norm of target step-size    0.10001
	Projected energy change by RFO approximation:        -0.0047919143

	Back-transformation to cartesian coordinates...
	Could not converge backtransformation.
	Using first guess instead.

	--- Internal Coordinate Step in ANG or DEG, aJ/ANG or AJ/DEG ---
	 ---------------------------------------------------------------------------
	   Coordinate                Previous        Force       Change         New 
	   ----------                --------       ------       ------       ------
	    1 R(1,4)          =      1.070242     0.089829     0.010613     1.080855
	    2 R(2,4)          =      1.070824     0.087887     0.010521     1.081346
	    3 R(3,4)          =      1.068956     0.099077     0.011664     1.080620
	    4 R(4,7)          =      1.540645     0.032395     0.004623     1.545268
	    5 R(5,7)          =      1.070326     0.097674     0.011481     1.081807
	    6 R(6,7)          =      1.069761     0.101286     0.011887     1.081648
	    7 R(7,10)         =      1.540128    -0.072333    -0.009897     1.530230
	    8 R(8,10)         =      1.069698     0.106053     0.012431     1.082129
	    9 R(9,10)         =      1.069668     0.108677     0.012737     1.082405
	   10 R(10,14)        =      1.539422    -0.047832    -0.006602     1.532820
	   11 R(11,14)        =      1.069756     0.102607     0.012059     1.081814
	   12 R(12,14)        =      1.069761     0.098672     0.011607     1.081367
	   13 R(13,14)        =      1.070201     0.095990     0.011304     1.081505
	   14 B(1,4,2)        =    109.476270    -0.000330    -0.768233   108.708037
	   15 B(1,4,3)        =    109.494326    -0.000400    -0.854098   108.640228
	   16 B(1,4,7)        =    109.464255     0.000401     0.901935   110.366190
	   17 B(2,4,3)        =    109.439922    -0.000344    -0.799086   108.640836
	   18 B(2,4,7)        =    109.483410     0.000208     0.439105   109.922515
	   19 B(3,4,7)        =    109.469141     0.000464     1.045126   110.514268
	   20 B(4,7,5)        =    109.431343    -0.000088    -0.013874   109.417469
	   21 B(4,7,6)        =    109.528316    -0.000085    -0.000990   109.527327
	   22 B(4,7,10)       =    109.501062     0.000770     1.558711   111.059774
	   23 B(5,7,6)        =    109.469614    -0.000002    -0.281527   109.188087
	   24 B(5,7,10)       =    109.437654    -0.000304    -0.646939   108.790715
	   25 B(6,7,10)       =    109.459295    -0.000291    -0.631493   108.827802
	   26 B(7,10,8)       =    109.452301    -0.000249    -0.512986   108.939314
	   27 B(7,10,9)       =    109.482155    -0.000232    -0.466784   109.015371
	   28 B(7,10,14)      =    109.504437     0.000703     1.417365   110.921802
	   29 B(8,10,9)       =    109.458846     0.000025    -0.172270   109.286576
	   30 B(8,10,14)      =    109.478806    -0.000119    -0.128507   109.350300
	   31 B(9,10,14)      =    109.450772    -0.000128    -0.146519   109.304253
	   32 B(10,14,11)     =    109.488965     0.000417     0.952462   110.441426
	   33 B(10,14,12)     =    109.503926     0.000112     0.236158   109.740084
	   34 B(10,14,13)     =    109.524173     0.000119     0.252342   109.776515
	   35 B(11,14,12)     =    109.458432    -0.000243    -0.526548   108.931884
	   36 B(11,14,13)     =    109.438058    -0.000245    -0.528013   108.910045
	   37 B(12,14,13)     =    109.413709    -0.000162    -0.401438   109.012272
	   38 D(1,4,7,5)      =      9.979038     0.000024     0.369914    10.348952
	   39 D(1,4,7,6)      =    129.987590    -0.000001     0.016293   130.003884
	   40 D(1,4,7,10)     =   -109.973702     0.000013     0.208954  -109.764748
	   41 D(2,4,7,5)      =    129.988421     0.000017     0.258610   130.247031
	   42 D(2,4,7,6)      =   -110.003027    -0.000008    -0.095011  -110.098037
	   43 D(2,4,7,10)     =     10.035681     0.000006     0.097650    10.133331
	   44 D(3,4,7,5)      =   -110.043721     0.000014     0.199117  -109.844604
	   45 D(3,4,7,6)      =      9.964831    -0.000011    -0.154503     9.810328
	   46 D(3,4,7,10)     =    130.003539     0.000004     0.038157   130.041696
	   47 D(4,7,10,8)     =    -60.009777     0.000028     0.364560   -59.645217
	   48 D(4,7,10,9)     =     59.970178    -0.000032    -0.431802    59.538376
	   49 D(4,7,10,14)    =    179.972182    -0.000002    -0.029589   179.942593
	   50 D(5,7,10,8)     =   -179.958653    -0.000012    -0.171768  -180.130420
	   51 D(5,7,10,9)     =    -59.978698    -0.000073    -0.968130   -60.946827
	   52 D(5,7,10,14)    =     60.023306    -0.000043    -0.565917    59.457389
	   53 D(6,7,10,8)     =     60.071149     0.000071     0.929053    61.000202
	   54 D(6,7,10,9)     =   -179.948896     0.000011     0.132691  -179.816205
	   55 D(6,7,10,14)    =    -59.946893     0.000041     0.534904   -59.411989
	   56 D(7,10,14,11)   =    179.989448    -0.000001    -0.020111   179.969337
	   57 D(7,10,14,12)   =     59.974196    -0.000008    -0.111580    59.862616
	   58 D(7,10,14,13)   =    -60.007849     0.000005     0.080109   -59.927740
	   59 D(8,10,14,11)   =     59.987626    -0.000014    -0.186221    59.801405
	   60 D(8,10,14,12)   =    -60.027626    -0.000020    -0.277689   -60.305315
	   61 D(8,10,14,13)   =    179.990329    -0.000007    -0.086000   179.904329
	   62 D(9,10,14,11)   =    -59.989345     0.000014     0.191257   -59.798087
	   63 D(9,10,14,12)   =    179.995403     0.000008     0.099789   180.095193
	   64 D(9,10,14,13)   =     60.013359     0.000021     0.291478    60.304837
	 ---------------------------------------------------------------------------
	Successfully symmetrized geometry.
	 Forces used to impose fixed constraints are not included.
	  Forces zeroed: 46 

  ==> Convergence Check <==

  Measures of convergence in internal coordinates in au.
  Criteria marked as inactive (o), active & met (*), and active & unmet ( ).
  --------------------------------------------------------------------------------------------- ~
   Step     Total Energy     Delta E     MAX Force     RMS Force      MAX Disp      RMS Disp    ~
  --------------------------------------------------------------------------------------------- ~
    Convergence Criteria    1.00e-06 *    3.00e-04 *             o    1.20e-03 *             o  ~
  --------------------------------------------------------------------------------------------- ~
      1    -158.15250800   -1.58e+02      1.32e-02      5.70e-03 o    2.72e-02      1.25e-02 o  ~
  ---------------------------------------------------------------------------------------------

	Writing optimization data to binary file.
	Structure for next step:
	Cartesian Geometry (in Angstrom)
	    H    -1.9228051233   1.1827027236  -1.3163368396
	    H    -2.1455929173  -0.3167848334  -0.4279570712
	    H    -2.3731119921   1.2257065590   0.3801297876
	    C    -1.7852066987   0.7003977912  -0.3588947974
	    H     0.2579826711   1.3445793417  -0.6418505684
	    H    -0.1842706667   1.0787627497   1.0443285777
	    C    -0.2910693869   0.7040255646   0.0353048941
	    H    -0.2470842462  -1.3485803658   0.6455382717
	    H     0.1966345329  -1.0829769264  -1.0423355666
	    C     0.2990150024  -0.7062109893  -0.0327977333
	    H     2.1902848467  -1.6990197083   0.3071409146
	    H     1.8916065208  -0.3248869957   1.3660655385
	    H     2.3341884498  -0.0597251265  -0.3176206127
	    C     1.7813216565  -0.6987468439   0.3573925557
			--------------------------
			 OPTKING Finished Execution 
			--------------------------

    Structure for next step:
    Molecular point group: c1
    Full point group: C1

    Geometry (in Angstrom), charge = 0, multiplicity = 1:

    H           -1.923606490219     1.182817018603    -1.316494192587
    H           -2.146394284299    -0.316670538430    -0.428114424250
    H           -2.373913359063     1.225820854010     0.379972434584
    C           -1.786008065704     0.700512086220    -0.359052150383
    H            0.257181304182     1.344693636710    -0.642007921385
    H           -0.185072033675     1.078877044704     1.044171224660
    C           -0.291870753874     0.704139859573     0.035147541130
    H           -0.247885613121    -1.348466070849     0.645380918723
    H            0.195833165975    -1.082862631416    -1.042492919602
    C            0.298213635416    -0.706096694339    -0.032955086318
    H            2.189483479786    -1.698905413309     0.306983561601
    H            1.890805153861    -0.324772700681     1.365908185517
    H            2.333387082820    -0.059610831530    -0.317777965670
    C            1.780520289583    -0.698632548930     0.357235202646

gradient() will perform analytic gradient computation.

*** tstart() called on gpu-3-8.local
*** at Wed Jun 14 14:27:32 2017

    SCF Algorithm Type (re)set to DF.

*** tstart() called on gpu-3-8.local
*** at Wed Jun 14 14:27:32 2017

   => Loading Basis Set <=

    Name: AUG-CC-PVTZ
    Role: ORBITAL
    Keyword: BASIS
    atoms 1-3, 5-6, 8-9, 11-13 entry H          line    34 file /cbio/jclab/home/chayas/anaconda/envs/py35/share/psi4/basis/aug-cc-pvtz.gbs 
    atoms 4, 7, 10, 14         entry C          line   221 file /cbio/jclab/home/chayas/anaconda/envs/py35/share/psi4/basis/aug-cc-pvtz.gbs 


         ---------------------------------------------------------
                                   SCF
            by Justin Turney, Rob Parrish, and Andy Simmonett
                              RHF Reference
                        1 Threads,   4768 MiB Core
         ---------------------------------------------------------

  ==> Geometry <==

    Molecular point group: c1
    Full point group: C1

    Geometry (in Angstrom), charge = 0, multiplicity = 1:

       Center              X                  Y                   Z               Mass       
    ------------   -----------------  -----------------  -----------------  -----------------
           H         -1.923606490219     1.182817018603    -1.316494192587     1.007825032070
           H         -2.146394284299    -0.316670538430    -0.428114424250     1.007825032070
           H         -2.373913359063     1.225820854010     0.379972434584     1.007825032070
           C         -1.786008065704     0.700512086220    -0.359052150383    12.000000000000
           H          0.257181304182     1.344693636710    -0.642007921385     1.007825032070
           H         -0.185072033675     1.078877044704     1.044171224660     1.007825032070
           C         -0.291870753874     0.704139859573     0.035147541130    12.000000000000
           H         -0.247885613121    -1.348466070849     0.645380918723     1.007825032070
           H          0.195833165975    -1.082862631416    -1.042492919602     1.007825032070
           C          0.298213635416    -0.706096694339    -0.032955086318    12.000000000000
           H          2.189483479786    -1.698905413309     0.306983561601     1.007825032070
           H          1.890805153861    -0.324772700681     1.365908185517     1.007825032070
           H          2.333387082820    -0.059610831530    -0.317777965670     1.007825032070
           C          1.780520289583    -0.698632548930     0.357235202646    12.000000000000

  Running in c1 symmetry.

  Rotational constants: A =      0.77698  B =      0.12290  C =      0.11518 [cm^-1]
  Rotational constants: A =  23293.34301  B =   3684.46140  C =   3453.12885 [MHz]
  Nuclear repulsion =  131.261208348523525

  Charge       = 0
  Multiplicity = 1
  Electrons    = 34
  Nalpha       = 17
  Nbeta        = 17

  ==> Algorithm <==

  SCF Algorithm Type is DF.
  DIIS enabled.
  MOM disabled.
  Fractional occupation disabled.
  Guess Type is READ.
  Energy threshold   = 1.00e-10
  Density threshold  = 1.00e-10
  Integral threshold = 0.00e+00

  ==> Primary Basis <==

  Basis Set: AUG-CC-PVTZ
    Blend: AUG-CC-PVTZ
    Number of shells: 146
    Number of basis function: 414
    Number of Cartesian functions: 470
    Spherical Harmonics?: true
    Max angular momentum: 3

   => Loading Basis Set <=

    Name: (AUG-CC-PVTZ AUX)
    Role: JKFIT
    Keyword: DF_BASIS_SCF
    atoms 1-3, 5-6, 8-9, 11-13 entry H          line    69 file /cbio/jclab/home/chayas/anaconda/envs/py35/share/psi4/basis/aug-cc-pvtz-jkfit.gbs 
    atoms 4, 7, 10, 14         entry C          line   161 file /cbio/jclab/home/chayas/anaconda/envs/py35/share/psi4/basis/aug-cc-pvtz-jkfit.gbs 

  Reading orbitals from file 180, no projection.

  ==> Pre-Iterations <==

   -------------------------------------------------------
    Irrep   Nso     Nmo     Nalpha   Nbeta   Ndocc  Nsocc
   -------------------------------------------------------
     A        414     414       0       0       0       0
   -------------------------------------------------------
    Total     414     414      17      17      17       0
   -------------------------------------------------------

  ==> Integral Setup <==

  ==> DFJK: Density-Fitted J/K Matrices <==

    J tasked:                  Yes
    K tasked:                  Yes
    wK tasked:                  No
    OpenMP threads:              1
    Integrals threads:           1
    Memory (MB):              3576
    Algorithm:                Core
    Integral Cache:           NONE
    Schwarz Cutoff:          1E-12
    Fitting Condition:       1E-12

   => Auxiliary Basis Set <=

  Basis Set: (AUG-CC-PVTZ AUX)
    Blend: AUG-CC-PVTZ-JKFIT
    Number of shells: 260
    Number of basis function: 876
    Number of Cartesian functions: 1074
    Spherical Harmonics?: true
    Max angular momentum: 4

  Minimum eigenvalue in the overlap matrix is 8.9557368094E-06.
  Using Symmetric Orthogonalization.

  SCF Guess: Orbitals guess was supplied from a previous computation.

  ==> Iterations <==

                           Total Energy        Delta E     RMS |[F,P]|

   @DF-RHF iter   0:  -157.27548019942532   -1.57275e+02   1.21499e-04 
   @DF-RHF iter   1:  -157.35018873727529   -7.47085e-02   4.84350e-05 
   @DF-RHF iter   2:  -157.35042736103350   -2.38624e-04   2.50060e-05 DIIS
   @DF-RHF iter   3:  -157.35047819736221   -5.08363e-05   2.72830e-06 DIIS
   @DF-RHF iter   4:  -157.35047953172000   -1.33436e-06   7.36471e-07 DIIS
   @DF-RHF iter   5:  -157.35047961393357   -8.22136e-08   2.47370e-07 DIIS
   @DF-RHF iter   6:  -157.35047962348605   -9.55248e-09   4.30651e-08 DIIS
   @DF-RHF iter   7:  -157.35047962389353   -4.07482e-10   6.89188e-09 DIIS
   @DF-RHF iter   8:  -157.35047962390414   -1.06013e-11   1.49479e-09 DIIS
   @DF-RHF iter   9:  -157.35047962390510   -9.66338e-13   3.41211e-10 DIIS
   @DF-RHF iter  10:  -157.35047962390479    3.12639e-13   7.15885e-11 DIIS

  ==> Post-Iterations <==

    Orbital Energies (a.u.)
    -----------------------

    Doubly Occupied:                                                      

       1A    -11.210450     2A    -11.209483     3A    -11.203326  
       4A    -11.202776     5A     -1.069965     6A     -0.978514  
       7A     -0.860677     8A     -0.790121     9A     -0.643575  
      10A     -0.583816    11A     -0.573539    12A     -0.572543  
      13A     -0.510096    14A     -0.502037    15A     -0.466942  
      16A     -0.465372    17A     -0.447973  

    Virtual:                                                              

      18A      0.032353    19A      0.037596    20A      0.039639  
      21A      0.040172    22A      0.058180    23A      0.059332  
      24A      0.060453    25A      0.061294    26A      0.076182  
      27A      0.083215    28A      0.103302    29A      0.112761  
      30A      0.122372    31A      0.130619    32A      0.139516  
      33A      0.141649    34A      0.142412    35A      0.144323  
      36A      0.148404    37A      0.161292    38A      0.165978  
      39A      0.168083    40A      0.173669    41A      0.196535  
      42A      0.201218    43A      0.218222    44A      0.223618  
      45A      0.240079    46A      0.249821    47A      0.254074  
      48A      0.264574    49A      0.279402    50A      0.281694  
      51A      0.289550    52A      0.310350    53A      0.318840  
      54A      0.334999    55A      0.340395    56A      0.345379  
      57A      0.356802    58A      0.357737    59A      0.359164  
      60A      0.364096    61A      0.369546    62A      0.369700  
      63A      0.383520    64A      0.388189    65A      0.388620  
      66A      0.391579    67A      0.394826    68A      0.396303  
      69A      0.405030    70A      0.408788    71A      0.414459  
      72A      0.431233    73A      0.439702    74A      0.440766  
      75A      0.446997    76A      0.460916    77A      0.461580  
      78A      0.464719    79A      0.466684    80A      0.486111  
      81A      0.489758    82A      0.498896    83A      0.507882  
      84A      0.508984    85A      0.517636    86A      0.519908  
      87A      0.524582    88A      0.530455    89A      0.539044  
      90A      0.544085    91A      0.547156    92A      0.555835  
      93A      0.559919    94A      0.577003    95A      0.584405  
      96A      0.588288    97A      0.591052    98A      0.614440  
      99A      0.617793   100A      0.634132   101A      0.639040  
     102A      0.650707   103A      0.675291   104A      0.678971  
     105A      0.698359   106A      0.717504   107A      0.750572  
     108A      0.773098   109A      0.791663   110A      0.814554  
     111A      0.823784   112A      0.828379   113A      0.831614  
     114A      0.839197   115A      0.844279   116A      0.855796  
     117A      0.866161   118A      0.876318   119A      0.882055  
     120A      0.889488   121A      0.893582   122A      0.900174  
     123A      0.917391   124A      0.918584   125A      0.919586  
     126A      0.924157   127A      0.929035   128A      0.939988  
     129A      0.947410   130A      0.953130   131A      0.964057  
     132A      0.975142   133A      0.980856   134A      0.988205  
     135A      0.991580   136A      1.016119   137A      1.026563  
     138A      1.036472   139A      1.044730   140A      1.057136  
     141A      1.072210   142A      1.078599   143A      1.081802  
     144A      1.088354   145A      1.101052   146A      1.103772  
     147A      1.119458   148A      1.139111   149A      1.149889  
     150A      1.155654   151A      1.157761   152A      1.166002  
     153A      1.181315   154A      1.190569   155A      1.214268  
     156A      1.226363   157A      1.232400   158A      1.242347  
     159A      1.249508   160A      1.253574   161A      1.257165  
     162A      1.266531   163A      1.274414   164A      1.288931  
     165A      1.294434   166A      1.302461   167A      1.311894  
     168A      1.312584   169A      1.335771   170A      1.351088  
     171A      1.362827   172A      1.389180   173A      1.402340  
     174A      1.416381   175A      1.430931   176A      1.444043  
     177A      1.460038   178A      1.476789   179A      1.485547  
     180A      1.492243   181A      1.512481   182A      1.529753  
     183A      1.537399   184A      1.546974   185A      1.569499  
     186A      1.592785   187A      1.599485   188A      1.608754  
     189A      1.616027   190A      1.637561   191A      1.645309  
     192A      1.669554   193A      1.676739   194A      1.688999  
     195A      1.700485   196A      1.701450   197A      1.706681  
     198A      1.716639   199A      1.722764   200A      1.726801  
     201A      1.734000   202A      1.751596   203A      1.752850  
     204A      1.762842   205A      1.766363   206A      1.768826  
     207A      1.785371   208A      1.806933   209A      1.823812  
     210A      1.833086   211A      1.856076   212A      1.875583  
     213A      1.902993   214A      1.911846   215A      1.929659  
     216A      1.954853   217A      1.964536   218A      1.967950  
     219A      1.978201   220A      2.002084   221A      2.005708  
     222A      2.013694   223A      2.027927   224A      2.035100  
     225A      2.049199   226A      2.061298   227A      2.067904  
     228A      2.083755   229A      2.095671   230A      2.140756  
     231A      2.161192   232A      2.184446   233A      2.192650  
     234A      2.213817   235A      2.231907   236A      2.255401  
     237A      2.266087   238A      2.274101   239A      2.288601  
     240A      2.301836   241A      2.313023   242A      2.335107  
     243A      2.357402   244A      2.366214   245A      2.373313  
     246A      2.405820   247A      2.415863   248A      2.438727  
     249A      2.462153   250A      2.481603   251A      2.505462  
     252A      2.540488   253A      2.582902   254A      2.611885  
     255A      2.622655   256A      2.669431   257A      2.793040  
     258A      2.873101   259A      2.964571   260A      3.046009  
     261A      3.180604   262A      3.248271   263A      3.282437  
     264A      3.366802   265A      3.395070   266A      3.421422  
     267A      3.443753   268A      3.454804   269A      3.468958  
     270A      3.483723   271A      3.518315   272A      3.559109  
     273A      3.572703   274A      3.587659   275A      3.589868  
     276A      3.602116   277A      3.624735   278A      3.663050  
     279A      3.671958   280A      3.683022   281A      3.693344  
     282A      3.707068   283A      3.714623   284A      3.735027  
     285A      3.749310   286A      3.783976   287A      3.791691  
     288A      3.799754   289A      3.825905   290A      3.836770  
     291A      3.846645   292A      3.860672   293A      3.879600  
     294A      3.887534   295A      3.906659   296A      3.912757  
     297A      3.954975   298A      3.974729   299A      3.980623  
     300A      3.992279   301A      3.998695   302A      4.004001  
     303A      4.015857   304A      4.029473   305A      4.053527  
     306A      4.062476   307A      4.070128   308A      4.091659  
     309A      4.161501   310A      4.173060   311A      4.190694  
     312A      4.200952   313A      4.227708   314A      4.233921  
     315A      4.239041   316A      4.260487   317A      4.267032  
     318A      4.281931   319A      4.302399   320A      4.314453  
     321A      4.354220   322A      4.356757   323A      4.374221  
     324A      4.422277   325A      4.443174   326A      4.462958  
     327A      4.510747   328A      4.521407   329A      4.548138  
     330A      4.556856   331A      4.594964   332A      4.628539  
     333A      4.645520   334A      4.663493   335A      4.691274  
     336A      4.701386   337A      4.727764   338A      4.735775  
     339A      4.755509   340A      4.799853   341A      4.804744  
     342A      4.857724   343A      4.859878   344A      4.867264  
     345A      4.880580   346A      4.913511   347A      4.936726  
     348A      4.956606   349A      4.968765   350A      4.990207  
     351A      5.015780   352A      5.032002   353A      5.044190  
     354A      5.092936   355A      5.124322   356A      5.126011  
     357A      5.164010   358A      5.196658   359A      5.198426  
     360A      5.230761   361A      5.245138   362A      5.256758  
     363A      5.273840   364A      5.311831   365A      5.329132  
     366A      5.335219   367A      5.353971   368A      5.383035  
     369A      5.416281   370A      5.429856   371A      5.446633  
     372A      5.460474   373A      5.492932   374A      5.498794  
     375A      5.538414   376A      5.555374   377A      5.571951  
     378A      5.612495   379A      5.617893   380A      5.659782  
     381A      5.685120   382A      5.721466   383A      5.750002  
     384A      5.775432   385A      5.787553   386A      5.825254  
     387A      5.856561   388A      5.919369   389A      5.953570  
     390A      6.010968   391A      6.037014   392A      6.097064  
     393A      6.137697   394A      6.150194   395A      6.191785  
     396A      6.200409   397A      6.236779   398A      6.299639  
     399A      6.305797   400A      6.339021   401A      6.374488  
     402A      6.469959   403A      6.557236   404A      6.607619  
     405A      6.742215   406A      6.774614   407A      6.820781  
     408A      6.846017   409A      6.869970   410A      6.982667  
     411A     17.897962   412A     18.119138   413A     18.789479  
     414A     19.672275  

    Final Occupation by Irrep:
              A 
    DOCC [    17 ]

  Energy converged.

  @DF-RHF Final Energy:  -157.35047962390479

   => Energetics <=

    Nuclear Repulsion Energy =            131.2612083485235246
    One-Electron Energy =                -470.6409640423400447
    Two-Electron Energy =                 182.0292760699117025
    DFT Exchange-Correlation Energy =       0.0000000000000000
    Empirical Dispersion Energy =           0.0000000000000000
    PCM Polarization Energy =               0.0000000000000000
    EFP Energy =                            0.0000000000000000
    Total Energy =                       -157.3504796239047892



Properties will be evaluated at   0.000000,   0.000000,   0.000000 Bohr

Properties computed using the SCF density matrix

  Nuclear Dipole Moment: (a.u.)
     X:    -0.0095      Y:     0.0009      Z:    -0.0042

  Electronic Dipole Moment: (a.u.)
     X:     0.0101      Y:    -0.0015      Z:     0.0037

  Dipole Moment: (a.u.)
     X:     0.0005      Y:    -0.0007      Z:    -0.0005     Total:     0.0010

  Dipole Moment: (Debye)
     X:     0.0014      Y:    -0.0017      Z:    -0.0014     Total:     0.0026


*** tstop() called on gpu-3-8.local at Wed Jun 14 14:28:51 2017
Module time:
	user time   =      78.05 seconds =       1.30 minutes
	system time =       0.57 seconds =       0.01 minutes
	total time  =         79 seconds =       1.32 minutes
Total time:
	user time   =     564.11 seconds =       9.40 minutes
	system time =       5.37 seconds =       0.09 minutes
	total time  =        570 seconds =       9.50 minutes

  //>>>>>>>>>>>>>>>>>>>>>>>>>>>>>>>>>>>//
  //               DFMP2               //
  //<<<<<<<<<<<<<<<<<<<<<<<<<<<<<<<<<<<//

   => Loading Basis Set <=

    Name: (AUG-CC-PVTZ AUX)
    Role: RIFIT
    Keyword: DF_BASIS_MP2
    atoms 1-3, 5-6, 8-9, 11-13 entry H          line    29 file /cbio/jclab/home/chayas/anaconda/envs/py35/share/psi4/basis/aug-cc-pvtz-ri.gbs 
    atoms 4, 7, 10, 14         entry C          line   147 file /cbio/jclab/home/chayas/anaconda/envs/py35/share/psi4/basis/aug-cc-pvtz-ri.gbs 

	 --------------------------------------------------------
	                          DF-MP2                         
	      2nd-Order Density-Fitted Moller-Plesset Theory     
	              RMP2 Wavefunction,   1 Threads             
	                                                         
	        Rob Parrish, Justin Turney, Andy Simmonett,      
	           Ed Hohenstein, and C. David Sherrill          
	 --------------------------------------------------------

   => Auxiliary Basis Set <=

  Basis Set: (AUG-CC-PVTZ AUX)
    Blend: AUG-CC-PVTZ-RI
    Number of shells: 252
    Number of basis function: 884
    Number of Cartesian functions: 1094
    Spherical Harmonics?: true
    Max angular momentum: 4

	 --------------------------------------------------------
	                 NBF =   414, NAUX =   884
	 --------------------------------------------------------
	   CLASS    FOCC     OCC    AOCC    AVIR     VIR    FVIR
	   PAIRS       0      17      17     397     397       0
	 --------------------------------------------------------


         ------------------------------------------------------------
                                     CPHF                           
                                  Rob Parrish                       
         ------------------------------------------------------------

  ==> Geometry <==

    Molecular point group: c1
    Full point group: C1

    Geometry (in Angstrom), charge = 0, multiplicity = 1:

       Center              X                  Y                   Z               Mass       
    ------------   -----------------  -----------------  -----------------  -----------------
           H         -1.923606490219     1.182817018603    -1.316494192587     1.007825032070
           H         -2.146394284299    -0.316670538430    -0.428114424250     1.007825032070
           H         -2.373913359063     1.225820854010     0.379972434584     1.007825032070
           C         -1.786008065704     0.700512086220    -0.359052150383    12.000000000000
           H          0.257181304182     1.344693636710    -0.642007921385     1.007825032070
           H         -0.185072033675     1.078877044704     1.044171224660     1.007825032070
           C         -0.291870753874     0.704139859573     0.035147541130    12.000000000000
           H         -0.247885613121    -1.348466070849     0.645380918723     1.007825032070
           H          0.195833165975    -1.082862631416    -1.042492919602     1.007825032070
           C          0.298213635416    -0.706096694339    -0.032955086318    12.000000000000
           H          2.189483479786    -1.698905413309     0.306983561601     1.007825032070
           H          1.890805153861    -0.324772700681     1.365908185517     1.007825032070
           H          2.333387082820    -0.059610831530    -0.317777965670     1.007825032070
           C          1.780520289583    -0.698632548930     0.357235202646    12.000000000000

  Nuclear repulsion =  131.261208348523525
  Reference energy  = -157.350479623904789

  ==> Basis Set <==

  Basis Set: AUG-CC-PVTZ
    Blend: AUG-CC-PVTZ
    Number of shells: 146
    Number of basis function: 414
    Number of Cartesian functions: 470
    Spherical Harmonics?: true
    Max angular momentum: 3

  ==> CGRSolver (by Rob Parrish) <==

   Number of roots    =         1
   Preconditioning    =    JACOBI
   Convergence cutoff =     1E-06
   Maximum iterations =       100

  ==> CPHFRHamiltonian (by Rob Parrish) <== 

  ==> DFJK: Density-Fitted J/K Matrices <==

    J tasked:                  Yes
    K tasked:                  Yes
    wK tasked:                  No
    OpenMP threads:              1
    Integrals threads:           1
    Memory (MB):              3576
    Algorithm:                Core
    Integral Cache:           NONE
    Schwarz Cutoff:          1E-12
    Fitting Condition:       1E-12

   => Auxiliary Basis Set <=

  Basis Set: (AUG-CC-PVTZ AUX)
    Blend: AUG-CC-PVTZ-JKFIT
    Number of shells: 260
    Number of basis function: 876
    Number of Cartesian functions: 1074
    Spherical Harmonics?: true
    Max angular momentum: 4

  ==> CPHF Iterations <==

  => Iterations <=

             Iter  Converged  Remaining    Residual
  CGR           1          0          1   8.293E-02
  CGR           2          0          1   1.330E-02
  CGR           3          0          1   3.488E-03
  CGR           4          0          1   8.141E-04
  CGR           5          0          1   1.197E-04
  CGR           6          0          1   2.186E-05
  CGR           7          0          1   3.950E-06
  CGR           8          1          0   9.584E-07

    CGRSolver converged.

  ==> DFCorrGrad: Density-Fitted Correlated Gradients <==

    OpenMP threads:              1
    Integrals threads:           1
    Memory (MB):              3576
    Schwarz Cutoff:          0E+00
    Fitting Condition:       1E-12

   => Auxiliary Basis Set <=

  Basis Set: (AUG-CC-PVTZ AUX)
    Blend: AUG-CC-PVTZ-JKFIT
    Number of shells: 260
    Number of basis function: 876
    Number of Cartesian functions: 1074
    Spherical Harmonics?: true
    Max angular momentum: 4

	-----------------------------------------------------------
	 ==================> DF-MP2 Energies <==================== 
	-----------------------------------------------------------
	 Reference Energy          =    -157.3504796239047892 [Eh]
	 Singles Energy            =      -0.0000000000000001 [Eh]
	 Same-Spin Energy          =      -0.1653395219836374 [Eh]
	 Opposite-Spin Energy      =      -0.6397936237864229 [Eh]
	 Correlation Energy        =      -0.8051331457700603 [Eh]
	 Total Energy              =    -158.1556127696748604 [Eh]
	-----------------------------------------------------------
	 ================> DF-SCS-MP2 Energies <================== 
	-----------------------------------------------------------
	 SCS Same-Spin Scale       =       0.3333333333333333 [-]
	 SCS Opposite-Spin Scale   =       1.2000000000000000 [-]
	 SCS Same-Spin Energy      =      -0.0551131739945458 [Eh]
	 SCS Opposite-Spin Energy  =      -0.7677523485437074 [Eh]
	 SCS Correlation Energy    =      -0.8228655225382533 [Eh]
	 SCS Total Energy          =    -158.1733451464430402 [Eh]
	-----------------------------------------------------------


  -Total Gradient:
     Atom            X                  Y                   Z
    ------   -----------------  -----------------  -----------------
       1        0.003061534081    -0.000433216507     0.003349022706
       2        0.003235225377     0.002936063221     0.000316586679
       3        0.004358630063    -0.001849341065    -0.000792104100
       4       -0.012832418309    -0.003089848372    -0.003651826226
       5       -0.004034758098    -0.004214198703    -0.000463137398
       6       -0.003206712755    -0.002963461636    -0.003254843821
       7        0.012385087820     0.016113328573     0.005523701875
       8        0.003712123168     0.003982749341    -0.000649733998
       9        0.002763532881     0.003546692162     0.003472024969
      10       -0.014062639369    -0.016420932849    -0.005508355797
      11       -0.003525399554     0.002670097084    -0.000529283249
      12       -0.002201436386    -0.001523211580    -0.003659754892
      13       -0.003525376255    -0.002270164585     0.001459743540
      14        0.013872607335     0.003515444918     0.004387959710


*** tstop() called on gpu-3-8.local at Wed Jun 14 14:35:14 2017
Module time:
	user time   =     457.87 seconds =       7.63 minutes
	system time =       4.36 seconds =       0.07 minutes
	total time  =        462 seconds =       7.70 minutes
Total time:
	user time   =     943.93 seconds =      15.73 minutes
	system time =       9.16 seconds =       0.15 minutes
	total time  =        953 seconds =      15.88 minutes

			-----------------------------------------
			 OPTKING 2.0: for geometry optimizations 
			  - R.A. King,  Bethel University        
			-----------------------------------------

	Previous internal coordinate definitions found.
	---Fragment 1 Geometry and Gradient---
	 H          -3.6350894540        2.2352002305       -2.4878134795
	 H          -4.0560973705       -0.5984205920       -0.8090190154
	 H          -4.4860461118        2.3164657021        0.7180438394
	 C          -3.3750661153        1.3237759957       -0.6785102316
	 H           0.4860022314        2.5411027060       -1.2132191466
	 H          -0.3497354585        2.0387821455        1.9731976504
	 C          -0.5515557910        1.3306314938        0.0664192270
	 H          -0.4684359211       -2.5482315734        1.2195931878
	 H           0.3700710514       -2.0463138129       -1.9700261135
	 C           0.5635421000       -1.3343293756       -0.0622760878
	 H           4.1375241493       -3.2104659568        0.5801148587
	 H           3.5731039114       -0.6137314597        2.5811923933
	 H           4.4094625485       -0.1126481461       -0.6005133262
	 C           3.3646957214       -1.3202241850        0.6750766980
	             0.0030615341       -0.0004332165        0.0033490227
	             0.0032352254        0.0029360632        0.0003165867
	             0.0043586301       -0.0018493411       -0.0007921041
	            -0.0128324183       -0.0030898484       -0.0036518262
	            -0.0040347581       -0.0042141987       -0.0004631374
	            -0.0032067128       -0.0029634616       -0.0032548438
	             0.0123850878        0.0161133286        0.0055237019
	             0.0037121232        0.0039827493       -0.0006497340
	             0.0027635329        0.0035466922        0.0034720250
	            -0.0140626394       -0.0164209328       -0.0055083558
	            -0.0035253996        0.0026700971       -0.0005292832
	            -0.0022014364       -0.0015232116       -0.0036597549
	            -0.0035253763       -0.0022701646        0.0014597435
	             0.0138726073        0.0035154449        0.0043879597

	---Fragment 1 Intrafragment Coordinates---
	 - Coordinate -           - BOHR/RAD -       - ANG/DEG -
	 R(1,4)           =         2.042519	       1.080855
	 R(2,4)           =         2.043447	       1.081346
	 R(3,4)           =         2.042076	       1.080620
	 R(4,7)           =         2.920133	       1.545268
	 R(5,7)           =         2.044319	       1.081807
	 R(6,7)           =         2.044019	       1.081648
	 R(7,10)          =         2.891716	       1.530230
	 R(8,10)          =         2.044927	       1.082129
	 R(9,10)          =         2.045449	       1.082405
	 R(10,14)         =         2.896610	       1.532820
	 R(11,14)         =         2.044333	       1.081814
	 R(12,14)         =         2.043488	       1.081367
	 R(13,14)         =         2.043748	       1.081505
	 B(1,4,2)         =         1.897313	     108.708037
	 B(1,4,3)         =         1.896130	     108.640228
	 B(1,4,7)         =         1.926253	     110.366190
	 B(2,4,3)         =         1.896140	     108.640836
	 B(2,4,7)         =         1.918510	     109.922515
	 B(3,4,7)         =         1.928838	     110.514268
	 B(4,7,5)         =         1.909695	     109.417469
	 B(4,7,6)         =         1.911612	     109.527327
	 B(4,7,10)        =         1.938359	     111.059774
	 B(5,7,6)         =         1.905692	     109.188087
	 B(5,7,10)        =         1.898756	     108.790715
	 B(6,7,10)        =         1.899403	     108.827802
	 B(7,10,8)        =         1.901350	     108.939314
	 B(7,10,9)        =         1.902677	     109.015371
	 B(7,10,14)       =         1.935951	     110.921802
	 B(8,10,9)        =         1.907411	     109.286576
	 B(8,10,14)       =         1.908523	     109.350300
	 B(9,10,14)       =         1.907719	     109.304253
	 B(10,14,11)      =         1.927567	     110.441426
	 B(10,14,12)      =         1.915326	     109.740084
	 B(10,14,13)      =         1.915962	     109.776515
	 B(11,14,12)      =         1.901220	     108.931884
	 B(11,14,13)      =         1.900839	     108.910045
	 B(12,14,13)      =         1.902623	     109.012272
	 D(1,4,7,5)       =         0.180623	      10.348952
	 D(1,4,7,6)       =         2.268996	     130.003884
	 D(1,4,7,10)      =        -1.915756	    -109.764748
	 D(2,4,7,5)       =         2.273240	     130.247031
	 D(2,4,7,6)       =        -1.921573	    -110.098037
	 D(2,4,7,10)      =         0.176860	      10.133331
	 D(3,4,7,5)       =        -1.917150	    -109.844604
	 D(3,4,7,6)       =         0.171223	       9.810328
	 D(3,4,7,10)      =         2.269656	     130.041696
	 D(4,7,10,8)      =        -1.041005	     -59.645217
	 D(4,7,10,9)      =         1.039141	      59.538376
	 D(4,7,10,14)     =         3.140591	     179.942593
	 D(5,7,10,8)      =         3.139316	     179.869580
	 D(5,7,10,9)      =        -1.063723	     -60.946827
	 D(5,7,10,14)     =         1.037727	      59.457389
	 D(6,7,10,8)      =         1.064654	      61.000202
	 D(6,7,10,9)      =        -3.138385	    -179.816205
	 D(6,7,10,14)     =        -1.036935	     -59.411989
	 D(7,10,14,11)    =         3.141057	     179.969337
	 D(7,10,14,12)    =         1.044800	      59.862616
	 D(7,10,14,13)    =        -1.045936	     -59.927740
	 D(8,10,14,11)    =         1.043731	      59.801405
	 D(8,10,14,12)    =        -1.052526	     -60.305315
	 D(8,10,14,13)    =         3.139923	     179.904329
	 D(9,10,14,11)    =        -1.043674	     -59.798087
	 D(9,10,14,12)    =        -3.139931	    -179.904807
	 D(9,10,14,13)    =         1.052518	      60.304837

	Current energy   :      -158.1556127697

	Energy change for the previous step:
		Projected    :        -0.0047919143
		Actual       :        -0.0031047685

	Performing BFGS update.
	Previous computed or guess Hessian on step 1.
	Steps to be used in Hessian update: 1
	Adding user-defined constraint: Fragment 1; Coordinate 46:
		Value =     2.269656; Fixed value    =     2.268930
		Force =    -0.000381; Force constant =     0.525000
	Removing off-diagonal coupling between coordinate 46 and others.
	Taking RFO optimization step.
	Going to follow RFO solution 1.
	Using RFO vector 1.

	Determining step-restricting scale parameter for RS-RFO.
	Maximum step size allowed    0.10000

	 Iter      |step|        alpha        rfo_root  
	------------------------------------------------
	    0     0.16423       1.00000           1
	    1     0.13279       7.13583           1
	    2     0.11032      17.43754           1
	    3     0.10152      24.14293           1
	    4     0.10004      25.49445           1
	    5     0.10000      25.53327           1
	------------------------------------------------
	Norm of target step-size    0.10000
	Projected energy change by RFO approximation:        -0.0006879003

	Back-transformation to cartesian coordinates...
	Successfully converged to displaced geometry.

	--- Internal Coordinate Step in ANG or DEG, aJ/ANG or AJ/DEG ---
	 ---------------------------------------------------------------------------
	   Coordinate                Previous        Force       Change         New 
	   ----------                --------       ------       ------       ------
	    1 R(1,4)          =      1.080855     0.029245     0.005215     1.086070
	    2 R(2,4)          =      1.081346     0.031804     0.005958     1.087304
	    3 R(3,4)          =      1.080620     0.031406     0.005529     1.086149
	    4 R(4,7)          =      1.545268    -0.019025    -0.006964     1.538304
	    5 R(5,7)          =      1.081807     0.035041     0.006428     1.088235
	    6 R(6,7)          =      1.081648     0.036082     0.006595     1.088243
	    7 R(7,10)         =      1.530230    -0.040299    -0.009794     1.520436
	    8 R(8,10)         =      1.082129     0.038268     0.007015     1.089144
	    9 R(9,10)         =      1.082405     0.039004     0.007137     1.089542
	   10 R(10,14)        =      1.532820    -0.040386    -0.010735     1.522085
	   11 R(11,14)        =      1.081814     0.031117     0.005367     1.087181
	   12 R(12,14)        =      1.081367     0.034313     0.006235     1.087603
	   13 R(13,14)        =      1.081505     0.033405     0.006078     1.087583
	   14 B(1,4,2)        =    108.708037    -0.000190    -0.830586   107.877452
	   15 B(1,4,3)        =    108.640228    -0.000209    -0.716618   107.923610
	   16 B(1,4,7)        =    110.366190     0.000222     0.945214   111.311404
	   17 B(2,4,3)        =    108.640836    -0.000193    -0.871962   107.768874
	   18 B(2,4,7)        =    109.922515     0.000117     0.422951   110.345466
	   19 B(3,4,7)        =    110.514268     0.000237     0.949111   111.463379
	   20 B(4,7,5)        =    109.417469    -0.000001     0.286030   109.703499
	   21 B(4,7,6)        =    109.527327    -0.000001     0.250737   109.778063
	   22 B(4,7,10)       =    111.059774     0.000302     1.128023   112.187796
	   23 B(5,7,6)        =    109.188087    -0.000095    -1.213972   107.974114
	   24 B(5,7,10)       =    108.790715    -0.000106    -0.217330   108.573386
	   25 B(6,7,10)       =    108.827802    -0.000105    -0.307749   108.520053
	   26 B(7,10,8)       =    108.939314    -0.000090    -0.216635   108.722680
	   27 B(7,10,9)       =    109.015371    -0.000080    -0.156024   108.859347
	   28 B(7,10,14)      =    110.921802     0.000283     1.070469   111.992271
	   29 B(8,10,9)       =    109.286576    -0.000077    -1.102896   108.183680
	   30 B(8,10,14)      =    109.350300    -0.000018     0.176819   109.527118
	   31 B(9,10,14)      =    109.304253    -0.000022     0.170284   109.474537
	   32 B(10,14,11)     =    110.441426     0.000209     0.837253   111.278679
	   33 B(10,14,12)     =    109.740084     0.000119     0.574806   110.314890
	   34 B(10,14,13)     =    109.776515     0.000122     0.586452   110.362967
	   35 B(11,14,12)     =    108.931884    -0.000155    -0.650971   108.280913
	   36 B(11,14,13)     =    108.910045    -0.000155    -0.644836   108.265209
	   37 B(12,14,13)     =    109.012272    -0.000149    -0.765974   108.246298
	   38 D(1,4,7,5)      =     10.348952     0.000023     1.064346    11.413298
	   39 D(1,4,7,6)      =    130.003884    -0.000004    -0.094227   129.909657
	   40 D(1,4,7,10)     =   -109.764748     0.000010     0.418125  -109.346623
	   41 D(2,4,7,5)      =    130.247031     0.000018     0.908516   131.155547
	   42 D(2,4,7,6)      =   -110.098037    -0.000009    -0.250056  -110.348094
	   43 D(2,4,7,10)     =     10.133331     0.000005     0.262295    10.395626
	   44 D(3,4,7,5)      =   -109.844604     0.000015     0.704939  -109.139665
	   45 D(3,4,7,6)      =      9.810328    -0.000012    -0.453633     9.356694
[...]
  CGR           9          1          0   2.709E-07

    CGRSolver converged.

  ==> DFCorrGrad: Density-Fitted Correlated Gradients <==

    OpenMP threads:              1
    Integrals threads:           1
    Memory (MB):              3576
    Schwarz Cutoff:          0E+00
    Fitting Condition:       1E-12

   => Auxiliary Basis Set <=

  Basis Set: (AUG-CC-PVTZ AUX)
    Blend: AUG-CC-PVTZ-JKFIT
    Number of shells: 260
    Number of basis function: 876
    Number of Cartesian functions: 1074
    Spherical Harmonics?: true
    Max angular momentum: 4

	-----------------------------------------------------------
	 ==================> DF-MP2 Energies <==================== 
	-----------------------------------------------------------
	 Reference Energy          =    -157.3516614178184057 [Eh]
	 Singles Energy            =      -0.0000000000000000 [Eh]
	 Same-Spin Energy          =      -0.1654540712082760 [Eh]
	 Opposite-Spin Energy      =      -0.6398633359489461 [Eh]
	 Correlation Energy        =      -0.8053174071572220 [Eh]
	 Total Energy              =    -158.1569788249756243 [Eh]
	-----------------------------------------------------------
	 ================> DF-SCS-MP2 Energies <================== 
	-----------------------------------------------------------
	 SCS Same-Spin Scale       =       0.3333333333333333 [-]
	 SCS Opposite-Spin Scale   =       1.2000000000000000 [-]
	 SCS Same-Spin Energy      =      -0.0551513570694253 [Eh]
	 SCS Opposite-Spin Energy  =      -0.7678360031387352 [Eh]
	 SCS Correlation Energy    =      -0.8229873602081605 [Eh]
	 SCS Total Energy          =    -158.1746487780265795 [Eh]
	-----------------------------------------------------------


  -Total Gradient:
     Atom            X                  Y                   Z
    ------   -----------------  -----------------  -----------------
       1       -0.000069266602     0.000128481319    -0.000130403999
       2        0.000011182962     0.000000879046    -0.000033101339
       3       -0.000332426029    -0.001559887908     0.001040456964
       4        0.000309929676     0.001767451689    -0.000701676569
       5        0.000101342561     0.000100488002    -0.000168478929
       6        0.000009163131     0.000036136423     0.000101309787
       7        0.000389373408    -0.000278252143    -0.001473775461
       8       -0.000034030202    -0.000055244430     0.000061615630
       9       -0.000019452468    -0.000020132115    -0.000106584051
      10       -0.000320039783    -0.000174183690     0.001464988695
      11        0.000039718311    -0.000088326417    -0.000022591043
      12        0.000034183541     0.000049472469     0.000143067157
      13        0.000128494193     0.000097231419    -0.000087535494
      14       -0.000248172702    -0.000004113663    -0.000087291346


*** tstop() called on gpu-3-8.local at Wed Jun 14 15:21:10 2017
Module time:
	user time   =     461.37 seconds =       7.69 minutes
	system time =       4.16 seconds =       0.07 minutes
	total time  =        465 seconds =       7.75 minutes
Total time:
	user time   =    3672.94 seconds =      61.22 minutes
	system time =      36.18 seconds =       0.60 minutes
	total time  =       3709 seconds =      61.82 minutes

			-----------------------------------------
			 OPTKING 2.0: for geometry optimizations 
			  - R.A. King,  Bethel University        
			-----------------------------------------

	Previous internal coordinate definitions found.
	---Fragment 1 Geometry and Gradient---
	 H          -3.6624765096        2.2023414402       -2.5250437998
	 H          -4.0978486926       -0.5913606045       -0.8019288859
	 H          -4.5283920233        2.3244704261        0.6836541914
	 C          -3.3692739223        1.3296911287       -0.6894185867
	 H           0.5048266726        2.5707877900       -1.1485737624
	 H          -0.3575249490        2.0288111868        1.9831105893
	 C          -0.5765477795        1.3056408098        0.0659627747
	 H          -0.4627312263       -2.5566398290        1.2249188708
	 H           0.3458625654       -2.0796859886       -1.9429169235
	 C           0.5857609157       -1.3138761337       -0.0427004639
	 H           4.1610859824       -3.2114242912        0.5903451044
	 H           3.6274714352       -0.5923795378        2.5713426062
	 H           4.4422390014       -0.1236670532       -0.6155181062
	 C           3.3623693557       -1.3190415212        0.6645278083
	            -0.0000692666        0.0001284813       -0.0001304040
	             0.0000111830        0.0000008790       -0.0000331013
	            -0.0003324260       -0.0015598879        0.0010404570
	             0.0003099297        0.0017674517       -0.0007016766
	             0.0001013426        0.0001004880       -0.0001684789
	             0.0000091631        0.0000361364        0.0001013098
	             0.0003893734       -0.0002782521       -0.0014737755
	            -0.0000340302       -0.0000552444        0.0000616156
	            -0.0000194525       -0.0000201321       -0.0001065841
	            -0.0003200398       -0.0001741837        0.0014649887
	             0.0000397183       -0.0000883264       -0.0000225910
	             0.0000341835        0.0000494725        0.0001430672
	             0.0001284942        0.0000972314       -0.0000875355
	            -0.0002481727       -0.0000041137       -0.0000872913

	---Fragment 1 Intrafragment Coordinates---
	 - Coordinate -           - BOHR/RAD -       - ANG/DEG -
	 R(1,4)           =         2.053535	       1.086684
	 R(2,4)           =         2.057649	       1.088861
	 R(3,4)           =         2.053891	       1.086872
	 R(4,7)           =         2.893181	       1.531006
	 R(5,7)           =         2.060356	       1.090293
	 R(6,7)           =         2.060680	       1.090465
	 R(7,10)          =         2.867863	       1.517608
	 R(8,10)          =         2.061712	       1.091011
	 R(9,10)          =         2.062726	       1.091548
	 R(10,14)         =         2.865267	       1.516234
	 R(11,14)         =         2.055374	       1.087657
	 R(12,14)         =         2.057732	       1.088905
	 R(13,14)         =         2.057561	       1.088814
	 B(1,4,2)         =         1.872668	     107.295962
	 B(1,4,3)         =         1.887236	     108.130650
	 B(1,4,7)         =         1.954912	     112.008195
	 B(2,4,3)         =         1.863888	     106.792927
	 B(2,4,7)         =         1.926556	     110.383507
	 B(3,4,7)         =         1.954372	     111.977261
	 B(4,7,5)         =         1.925821	     110.341404
	 B(4,7,6)         =         1.920462	     110.034356
	 B(4,7,10)        =         1.970250	     112.887032
	 B(5,7,6)         =         1.851618	     106.089876
	 B(5,7,10)        =         1.902675	     109.015224
	 B(6,7,10)        =         1.888854	     108.223350
	 B(7,10,8)        =         1.897768	     108.734117
	 B(7,10,9)        =         1.903797	     109.079546
	 B(7,10,14)       =         1.966049	     112.646296
	 B(8,10,9)        =         1.858200	     106.467032
	 B(8,10,14)       =         1.917684	     109.875183
	 B(9,10,14)       =         1.917092	     109.841278
	 B(10,14,11)      =         1.949080	     111.674067
	 B(10,14,12)      =         1.931502	     110.666912
	 B(10,14,13)      =         1.932627	     110.731370
	 B(11,14,12)      =         1.884427	     107.969729
	 B(11,14,13)      =         1.884406	     107.968496
	 B(12,14,13)      =         1.879386	     107.680877
	 D(1,4,7,5)       =         0.245764	      14.081237
	 D(1,4,7,6)       =         2.283106	     130.812316
	 D(1,4,7,10)      =        -1.887989	    -108.173794
	 D(2,4,7,5)       =         2.331270	     133.571908
	 D(2,4,7,6)       =        -1.914574	    -109.697013
	 D(2,4,7,10)      =         0.197517	      11.316877
	 D(3,4,7,5)       =        -1.877821	    -107.591218
	 D(3,4,7,6)       =         0.159521	       9.139860
	 D(3,4,7,10)      =         2.271611	     130.153751
	 D(4,7,10,8)      =        -1.028519	     -58.929789
	 D(4,7,10,9)      =         0.991233	      56.793462
	 D(4,7,10,14)     =         3.124707	     179.032532
	 D(5,7,10,8)      =         3.107983	     178.074280
	 D(5,7,10,9)      =        -1.155451	     -66.202469
	 D(5,7,10,14)     =         0.978023	      56.036601
	 D(6,7,10,8)      =         1.101445	      63.108149
	 D(6,7,10,9)      =         3.121197	     178.831400
	 D(6,7,10,14)     =        -1.028514	     -58.929530
	 D(7,10,14,11)    =         3.134187	     179.575686
	 D(7,10,14,12)    =         1.034320	      59.262182
	 D(7,10,14,13)    =        -1.048392	     -60.068440
	 D(8,10,14,11)    =         1.015517	      58.184830
	 D(8,10,14,12)    =        -1.084350	     -62.128674
	 D(8,10,14,13)    =         3.116123	     178.540704
	 D(9,10,14,11)    =        -1.023035	     -58.615581
	 D(9,10,14,12)    =        -3.122902	    -178.929085
	 D(9,10,14,13)    =         1.077571	      61.740293

	Current energy   :      -158.1569788250

	Energy change for the previous step:
		Projected    :         0.0000272384
		Actual       :        -0.0000095536

	Performing BFGS update.
	Previous computed or guess Hessian on step 1.
	Steps to be used in Hessian update: 7 6
	Adding user-defined constraint: Fragment 1; Coordinate 46:
		Value =     2.271611; Fixed value    =     2.268930
		Force =    -0.001810; Force constant =     0.675000
	Removing off-diagonal coupling between coordinate 46 and others.
	Taking RFO optimization step.
	Going to follow RFO solution 1.
	Rejecting RFO root 1 because normalization gives large value.
	Rejecting RFO root 2 because normalization gives large value.
	Using RFO vector 3.
	Norm of target step-size    0.00294
	Projected energy change by RFO approximation:        -0.0000000943

	Back-transformation to cartesian coordinates...
	Successfully converged to displaced geometry.

	--- Internal Coordinate Step in ANG or DEG, aJ/ANG or AJ/DEG ---
	 ---------------------------------------------------------------------------
	   Coordinate                Previous        Force       Change         New 
	   ----------                --------       ------       ------       ------
	    1 R(1,4)          =      1.086684    -0.001492    -0.000102     1.086582
	    2 R(2,4)          =      1.088861     0.000024     0.000015     1.088876
	    3 R(3,4)          =      1.086872    -0.001052    -0.000066     1.086806
	    4 R(4,7)          =      1.531006    -0.000287    -0.000043     1.530963
	    5 R(5,7)          =      1.090293    -0.001765    -0.000216     1.090077
	    6 R(6,7)          =      1.090465    -0.000889    -0.000136     1.090329
	    7 R(7,10)         =      1.517608     0.000357     0.000017     1.517625
	    8 R(8,10)         =      1.091011    -0.000729    -0.000067     1.090944
	    9 R(9,10)         =      1.091548    -0.000889    -0.000080     1.091468
	   10 R(10,14)        =      1.516234     0.000477    -0.000004     1.516230
	   11 R(11,14)        =      1.087657    -0.000804    -0.000033     1.087624
	   12 R(12,14)        =      1.088905    -0.001272    -0.000111     1.088793
	   13 R(13,14)        =      1.088814    -0.001470    -0.000124     1.088690
	   14 B(1,4,2)        =    107.295962     0.000001     0.000511   107.296473
	   15 B(1,4,3)        =    108.130650    -0.000002    -0.006708   108.123941
	   16 B(1,4,7)        =    112.008195    -0.000006    -0.018465   111.989730
	   17 B(2,4,3)        =    106.792927     0.000003     0.012170   106.805097
	   18 B(2,4,7)        =    110.383507     0.000002     0.012082   110.395589
	   19 B(3,4,7)        =    111.977261     0.000002     0.001485   111.978747
	   20 B(4,7,5)        =    110.341404     0.000002    -0.000723   110.340681
	   21 B(4,7,6)        =    110.034356    -0.000002    -0.004829   110.029527
	   22 B(4,7,10)       =    112.887032     0.000001     0.004882   112.891914
	   23 B(5,7,6)        =    106.089876    -0.000001    -0.001703   106.088174
	   24 B(5,7,10)       =    109.015224    -0.000006    -0.003663   109.011561
	   25 B(6,7,10)       =    108.223350     0.000005     0.005741   108.229090
	   26 B(7,10,8)       =    108.734117    -0.000002    -0.007099   108.727019
	   27 B(7,10,9)       =    109.079546     0.000001     0.008398   109.087944
	   28 B(7,10,14)      =    112.646296     0.000003     0.002454   112.648750
	   29 B(8,10,9)       =    106.467032     0.000000     0.002199   106.469231
	   30 B(8,10,14)      =    109.875183    -0.000001    -0.003930   109.871253
	   31 B(9,10,14)      =    109.841278    -0.000001    -0.001999   109.839279
	   32 B(10,14,11)     =    111.674067     0.000002     0.004378   111.678445
	   33 B(10,14,12)     =    110.666912    -0.000001    -0.005463   110.661449
	   34 B(10,14,13)     =    110.731370    -0.000004    -0.006703   110.724666
	   35 B(11,14,12)     =    107.969729     0.000000     0.001705   107.971434
	   36 B(11,14,13)     =    107.968496     0.000002     0.003382   107.971878
	   37 B(12,14,13)     =    107.680877     0.000002     0.003066   107.683942
	   38 D(1,4,7,5)      =     14.081237     0.000001     0.010448    14.091685
	   39 D(1,4,7,6)      =    130.812316     0.000000     0.005048   130.817364
	   40 D(1,4,7,10)     =   -108.173794     0.000002     0.012278  -108.161516
	   41 D(2,4,7,5)      =    133.571908     0.000000     0.007137   133.579045
	   42 D(2,4,7,6)      =   -109.697013    -0.000000     0.001737  -109.695277
	   43 D(2,4,7,10)     =     11.316877     0.000001     0.008967    11.325844
	   44 D(3,4,7,5)      =   -107.591218     0.000002     0.031440  -107.559778
	   45 D(3,4,7,6)      =      9.139860     0.000002     0.026040     9.165901
	   46 D(3,4,7,10)     =    130.153751     0.000003     0.033271   130.187022
	   47 D(4,7,10,8)     =    -58.929789    -0.000000     0.043768   -58.886021
	   48 D(4,7,10,9)     =     56.793462    -0.000000     0.047058    56.840520
	   49 D(4,7,10,14)    =    179.032532     0.000000     0.052134   179.084666
	   50 D(5,7,10,8)     =    178.074280     0.000000     0.044015   178.118296
	   51 D(5,7,10,9)     =    -66.202469    -0.000000     0.047306   -66.155163
	   52 D(5,7,10,14)    =     56.036601     0.000000     0.052382    56.088983
	   53 D(6,7,10,8)     =     63.108149     0.000000     0.044881    63.153029
	   54 D(6,7,10,9)     =    178.831400     0.000000     0.048171   178.879571
	   55 D(6,7,10,14)    =    -58.929530     0.000001     0.053247   -58.876283
	   56 D(7,10,14,11)   =    179.575686    -0.000000    -0.020273   179.555413
	   57 D(7,10,14,12)   =     59.262182    -0.000000    -0.021643    59.240539
	   58 D(7,10,14,13)   =    -60.068440    -0.000000    -0.017618   -60.086057
	   59 D(8,10,14,11)   =     58.184830    -0.000000    -0.010076    58.174754
	   60 D(8,10,14,12)   =    -62.128674    -0.000000    -0.011446   -62.140120
	   61 D(8,10,14,13)   =    178.540704     0.000000    -0.007420   178.533284
	   62 D(9,10,14,11)   =    -58.615581     0.000000    -0.009266   -58.624847
	   63 D(9,10,14,12)   =   -178.929085     0.000000    -0.010636  -178.939721
	   64 D(9,10,14,13)   =     61.740293     0.000000    -0.006611    61.733683
	 ---------------------------------------------------------------------------
	Successfully symmetrized geometry.
	 Forces used to impose fixed constraints are not included.
	  Forces zeroed: 46 

  ==> Convergence Check <==

  Measures of convergence in internal coordinates in au.
  Criteria marked as inactive (o), active & met (*), and active & unmet ( ).
  ---------------------------------------------------------------------------------------------
   Step     Total Energy     Delta E     MAX Force     RMS Force      MAX Disp      RMS Disp   
  ---------------------------------------------------------------------------------------------
    Convergence Criteria    1.00e-06 *    3.00e-04 *             o    1.20e-03 *             o
  ---------------------------------------------------------------------------------------------
      8    -158.15697882   -9.55e-06      2.14e-04 *    6.54e-05 o    9.29e-04 *    3.67e-04 o  ~
  ---------------------------------------------------------------------------------------------


  **** Optimization is complete! (in 8 steps) ****

  ==> Optimization Summary <==

  Measures of convergence in internal coordinates in au.
  --------------------------------------------------------------------------------------------------------------- ~
   Step         Total Energy             Delta E       MAX Force       RMS Force        MAX Disp        RMS Disp  ~
  --------------------------------------------------------------------------------------------------------------- ~
      1    -158.152508001169   -158.152508001169      0.01319104      0.00569641      0.02720465      0.01250992  ~
      2    -158.155612769675     -0.003104768506      0.00490199      0.00237652      0.03032977      0.01252792  ~
      3    -158.156701266484     -0.001088496810      0.00176873      0.00069725      0.04210266      0.01251741  ~
      4    -158.156964068762     -0.000262802277      0.00099559      0.00019273      0.01743185      0.00546481  ~
      5    -158.156981636822     -0.000017568060      0.00010437      0.00003454      0.00393290      0.00133675  ~
      6    -158.156983771442     -0.000002134621      0.00003757      0.00001140      0.03526541      0.01250197  ~
      7    -158.156969271383      0.000014500059      0.00030291      0.00010388      0.03302412      0.01190791  ~
      8    -158.156978824976     -0.000009553592      0.00021421      0.00006897      0.00092933      0.00036721  ~
  --------------------------------------------------------------------------------------------------------------- ~

	Writing optimization data to binary file.
	Final energy is   -158.1569788249756
	Final (previous) structure:
	Cartesian Geometry (in Angstrom)
	    H    -1.9380990959   1.1654288957  -1.3361956296
	    H    -2.1684881323  -0.3129345539  -0.4243624893
	    H    -2.3963218503   1.2300567715   0.3617742167
	    C    -1.7829429692   0.7036422398  -0.3648246033
	    H     0.2671427694   1.3604023066  -0.6077990575
	    H    -0.1891940545   1.0736006406   1.0494169260
	    C    -0.3050959445   0.6909153592   0.0349059970
	    H    -0.2448668186  -1.3529155281   0.6481991488
	    H     0.1830225869  -1.1005224262  -1.0281473541
	    C     0.3099713263  -0.6952733049  -0.0225961123
	    H     2.2019518648  -1.6994125420   0.3123971744
	    H     1.9195752083  -0.3134737503   1.3606959027
	    H     2.3507316346  -0.0654417860  -0.3257181533
	    C     1.7792892299  -0.6980067102   0.3516529706
	Saving final (previous) structure.
			--------------------------
			 OPTKING Finished Execution 
			--------------------------

    Final optimized geometry and variables:
    Molecular point group: c1
    Full point group: C1

    Geometry (in Angstrom), charge = 0, multiplicity = 1:

    H           -1.938099095862     1.165428895676    -1.336195629551
    H           -2.168488132349    -0.312934553950    -0.424362489326
    H           -2.396321850308     1.230056771547     0.361774216661
    C           -1.782942969158     0.703642239766    -0.364824603269
    H            0.267142769419     1.360402306570    -0.607799057460
    H           -0.189194054539     1.073600640602     1.049416925994
    C           -0.305095944549     0.690915359167     0.034905997010
    H           -0.244866818648    -1.352915528090     0.648199148773
    H            0.183022586916    -1.100522426193    -1.028147354099
    C            0.309971326297    -0.695273304858    -0.022596112266
    H            2.201951864846    -1.699412542003     0.312397174436
    H            1.919575208313    -0.313473750250     1.360695902660
    H            2.350731634626    -0.065441785996    -0.325718153281
    C            1.779289229878    -0.698006710221     0.351652970609

	Cleaning optimization helper files.

*** Psi4 exiting successfully. Buy a developer a beer!
