
    -----------------------------------------------------------------------
          Psi4: An Open-Source Ab Initio Electronic Structure Package
                               Psi4 1.1 release

                         Git: Rev {HEAD} add49b9 


    R. M. Parrish, L. A. Burns, D. G. A. Smith, A. C. Simmonett,
    A. E. DePrince III, E. G. Hohenstein, U. Bozkaya, A. Yu. Sokolov,
    R. Di Remigio, R. M. Richard, J. F. Gonthier, A. M. James,
    H. R. McAlexander, A. Kumar, M. Saitow, X. Wang, B. P. Pritchard,
    P. Verma, H. F. Schaefer III, K. Patkowski, R. A. King, E. F. Valeev,
    F. A. Evangelista, J. M. Turney, T. D. Crawford, and C. D. Sherrill,
    J. Chem. Theory Comput. in press (2017).
    (doi: 10.1021/acs.jctc.7b00174)

    -----------------------------------------------------------------------


    Psi4 started on: Wednesday, 14 June 2017 02:24PM

    Process ID:   3923
    PSIDATADIR: /cbio/jclab/home/chayas/anaconda/envs/py35/share/psi4
    Memory:     500.0 MiB
    Threads:    1
    
  ==> Input File <==

--------------------------------------------------------------------------

memory 1000 mb

molecule butane {
  symmetry C1
  0 1 
  H      4.199   1.706   -6.486
  H      2.908   2.756   -7.020
  H      2.585   1.071   -6.692
  C      3.306   1.764   -7.072
  H      2.737   1.473   -9.123
  H      4.352   2.109   -8.918
  C      3.631   1.416   -8.537
  H      3.665   -0.647   -7.940
  H      4.104   -0.384   -9.610
  C      4.203   -0.012   -8.612
  H      6.088   -0.983   -8.270
  H      5.791   0.381   -7.220
  H      6.230   0.644   -8.890
  C      5.691   0.009   -8.218
  units Angstrom
}

dih_string = "14 10 7 4 280"
set optking fixed_dihedral = $dih_string

optimize('MP2/aug-cc-pvtz')
--------------------------------------------------------------------------

  Memory set to 953.674 MiB by Python driver.
gradient() will perform analytic gradient computation.

*** tstart() called on gpu-1-16.local
*** at Wed Jun 14 14:24:37 2017

    SCF Algorithm Type (re)set to DF.

*** tstart() called on gpu-1-16.local
*** at Wed Jun 14 14:24:38 2017

   => Loading Basis Set <=

    Name: AUG-CC-PVTZ
    Role: ORBITAL
    Keyword: BASIS
    atoms 1-3, 5-6, 8-9, 11-13 entry H          line    34 file /cbio/jclab/home/chayas/anaconda/envs/py35/share/psi4/basis/aug-cc-pvtz.gbs 
    atoms 4, 7, 10, 14         entry C          line   221 file /cbio/jclab/home/chayas/anaconda/envs/py35/share/psi4/basis/aug-cc-pvtz.gbs 


         ---------------------------------------------------------
                                   SCF
            by Justin Turney, Rob Parrish, and Andy Simmonett
                              RHF Reference
                        1 Threads,    953 MiB Core
         ---------------------------------------------------------

  ==> Geometry <==

    Molecular point group: c1
    Full point group: C1

    Geometry (in Angstrom), charge = 0, multiplicity = 1:

       Center              X                  Y                   Z               Mass       
    ------------   -----------------  -----------------  -----------------  -----------------
           H         -0.018840700958     0.908565746129     1.607637848943     1.007825032070
           H         -1.309840700958     1.958565746129     1.073637848943     1.007825032070
           H         -1.632840700958     0.273565746129     1.401637848943     1.007825032070
           C         -0.911840700958     0.966565746129     1.021637848943    12.000000000000
           H         -1.480840700958     0.675565746129    -1.029362151057     1.007825032070
           H          0.134159299042     1.311565746129    -0.824362151057     1.007825032070
           C         -0.586840700958     0.618565746129    -0.443362151057    12.000000000000
           H         -0.552840700958    -1.444434253871     0.153637848943     1.007825032070
           H         -0.113840700958    -1.181434253871    -1.516362151057     1.007825032070
           C         -0.014840700958    -0.809434253871    -0.518362151057    12.000000000000
           H          1.870159299042    -1.780434253871    -0.176362151057     1.007825032070
           H          1.573159299042    -0.416434253871     0.873637848943     1.007825032070
           H          2.012159299042    -0.153434253871    -0.796362151057     1.007825032070
           C          1.473159299042    -0.788434253871    -0.124362151057    12.000000000000

  Running in c1 symmetry.

  Rotational constants: A =      0.45833  B =      0.15806  C =      0.14031 [cm^-1]
  Rotational constants: A =  13740.25569  B =   4738.66308  C =   4206.40856 [MHz]
  Nuclear repulsion =  133.859565831819822

  Charge       = 0
  Multiplicity = 1
  Electrons    = 34
  Nalpha       = 17
  Nbeta        = 17

  ==> Algorithm <==

  SCF Algorithm Type is DF.
  DIIS enabled.
  MOM disabled.
  Fractional occupation disabled.
  Guess Type is SAD.
  Energy threshold   = 1.00e-10
  Density threshold  = 1.00e-10
  Integral threshold = 0.00e+00

  ==> Primary Basis <==

  Basis Set: AUG-CC-PVTZ
    Blend: AUG-CC-PVTZ
    Number of shells: 146
    Number of basis function: 414
    Number of Cartesian functions: 470
    Spherical Harmonics?: true
    Max angular momentum: 3

   => Loading Basis Set <=

    Name: (AUG-CC-PVTZ AUX)
    Role: JKFIT
    Keyword: DF_BASIS_SCF
    atoms 1-3, 5-6, 8-9, 11-13 entry H          line    69 file /cbio/jclab/home/chayas/anaconda/envs/py35/share/psi4/basis/aug-cc-pvtz-jkfit.gbs 
    atoms 4, 7, 10, 14         entry C          line   161 file /cbio/jclab/home/chayas/anaconda/envs/py35/share/psi4/basis/aug-cc-pvtz-jkfit.gbs 

  ==> Pre-Iterations <==

   -------------------------------------------------------
    Irrep   Nso     Nmo     Nalpha   Nbeta   Ndocc  Nsocc
   -------------------------------------------------------
     A        414     414       0       0       0       0
   -------------------------------------------------------
    Total     414     414      17      17      17       0
   -------------------------------------------------------

  ==> Integral Setup <==

  ==> DFJK: Density-Fitted J/K Matrices <==

    J tasked:                  Yes
    K tasked:                  Yes
    wK tasked:                  No
    OpenMP threads:              1
    Integrals threads:           1
    Memory (MB):               715
    Algorithm:                Core
    Integral Cache:           NONE
    Schwarz Cutoff:          1E-12
    Fitting Condition:       1E-12

   => Auxiliary Basis Set <=

  Basis Set: (AUG-CC-PVTZ AUX)
    Blend: AUG-CC-PVTZ-JKFIT
    Number of shells: 260
    Number of basis function: 876
    Number of Cartesian functions: 1074
    Spherical Harmonics?: true
    Max angular momentum: 4

  Minimum eigenvalue in the overlap matrix is 6.4709623440E-06.
  Using Symmetric Orthogonalization.

  SCF Guess: Superposition of Atomic Densities via on-the-fly atomic UHF.

  ==> Iterations <==

                           Total Energy        Delta E     RMS |[F,P]|

   @DF-RHF iter   0:  -159.09084981839277   -1.59091e+02   9.61651e-03 
   @DF-RHF iter   1:  -157.24748231741751    1.84337e+00   9.08269e-04 
   @DF-RHF iter   2:  -157.33734177987674   -8.98595e-02   3.20775e-04 DIIS
   @DF-RHF iter   3:  -157.34803026920247   -1.06885e-02   1.14854e-04 DIIS
   @DF-RHF iter   4:  -157.34988637313421   -1.85610e-03   1.72694e-05 DIIS
   @DF-RHF iter   5:  -157.34995001412503   -6.36410e-05   4.00530e-06 DIIS
   @DF-RHF iter   6:  -157.34995316512985   -3.15100e-06   1.20420e-06 DIIS
   @DF-RHF iter   7:  -157.34995336469240   -1.99563e-07   2.44520e-07 DIIS
   @DF-RHF iter   8:  -157.34995337679857   -1.21062e-08   5.50678e-08 DIIS
   @DF-RHF iter   9:  -157.34995337743197   -6.33406e-10   1.86874e-08 DIIS
   @DF-RHF iter  10:  -157.34995337749703   -6.50573e-11   5.25888e-09 DIIS
   @DF-RHF iter  11:  -157.34995337750118   -4.14957e-12   1.07001e-09 DIIS
   @DF-RHF iter  12:  -157.34995337750382   -2.64322e-12   2.48911e-10 DIIS
   @DF-RHF iter  13:  -157.34995337750155    2.27374e-12   7.02181e-11 DIIS

  ==> Post-Iterations <==

    Orbital Energies (a.u.)
    -----------------------

    Doubly Occupied:                                                      

       1A    -11.206535     2A    -11.205914     3A    -11.199409  
       4A    -11.199321     5A     -1.072663     6A     -0.976665  
       7A     -0.872171     8A     -0.786937     9A     -0.630125  
      10A     -0.624310    11A     -0.580280    12A     -0.539305  
      13A     -0.528491    14A     -0.506544    15A     -0.473850  
      16A     -0.457428    17A     -0.448667  

    Virtual:                                                              

      18A      0.032118    19A      0.037794    20A      0.039529  
      21A      0.041163    22A      0.057565    23A      0.058968  
      24A      0.059600    25A      0.060956    26A      0.077753  
      27A      0.085757    28A      0.102953    29A      0.122072  
      30A      0.122116    31A      0.126102    32A      0.129041  
      33A      0.132240    34A      0.138590    35A      0.144729  
      36A      0.154949    37A      0.155558    38A      0.162357  
      39A      0.166309    40A      0.173055    41A      0.192123  
      42A      0.212554    43A      0.215071    44A      0.234673  
      45A      0.246560    46A      0.258504    47A      0.259014  
      48A      0.277270    49A      0.280322    50A      0.300951  
      51A      0.301043    52A      0.305701    53A      0.311049  
      54A      0.323156    55A      0.330571    56A      0.332151  
      57A      0.346713    58A      0.360698    59A      0.361570  
      60A      0.361709    61A      0.363895    62A      0.370150  
      63A      0.383045    64A      0.387268    65A      0.388892  
      66A      0.395700    67A      0.406575    68A      0.409912  
      69A      0.421146    70A      0.429509    71A      0.429691  
      72A      0.439213    73A      0.439326    74A      0.445732  
      75A      0.452884    76A      0.461678    77A      0.472922  
      78A      0.476690    79A      0.480387    80A      0.483410  
      81A      0.490572    82A      0.498341    83A      0.501535  
      84A      0.508292    85A      0.518339    86A      0.521976  
      87A      0.525547    88A      0.532195    89A      0.539498  
      90A      0.552995    91A      0.558517    92A      0.573177  
      93A      0.579488    94A      0.591253    95A      0.598723  
      96A      0.603889    97A      0.605041    98A      0.617026  
      99A      0.624297   100A      0.641213   101A      0.642516  
     102A      0.652492   103A      0.661931   104A      0.679736  
     105A      0.692887   106A      0.720442   107A      0.743492  
     108A      0.790046   109A      0.798117   110A      0.815547  
     111A      0.818734   112A      0.827849   113A      0.836316  
     114A      0.836622   115A      0.843332   116A      0.860219  
     117A      0.863698   118A      0.868897   119A      0.884526  
     120A      0.884923   121A      0.888453   122A      0.895505  
     123A      0.913420   124A      0.915532   125A      0.924939  
     126A      0.932024   127A      0.936223   128A      0.949023  
     129A      0.950144   130A      0.974634   131A      0.981968  
     132A      0.987658   133A      0.996901   134A      1.006537  
     135A      1.014070   136A      1.015740   137A      1.034041  
     138A      1.046850   139A      1.055282   140A      1.067148  
     141A      1.074522   142A      1.093343   143A      1.110032  
     144A      1.111038   145A      1.119582   146A      1.131797  
     147A      1.132655   148A      1.151102   149A      1.153906  
     150A      1.160708   151A      1.165538   152A      1.195470  
     153A      1.195851   154A      1.196483   155A      1.198670  
     156A      1.214559   157A      1.234244   158A      1.241851  
     159A      1.251741   160A      1.268391   161A      1.272094  
     162A      1.277678   163A      1.290627   164A      1.293510  
     165A      1.318909   166A      1.334189   167A      1.343276  
     168A      1.352594   169A      1.371824   170A      1.375679  
     171A      1.382551   172A      1.390220   173A      1.416282  
     174A      1.438390   175A      1.445746   176A      1.450626  
     177A      1.465617   178A      1.480643   179A      1.492344  
     180A      1.518144   181A      1.538077   182A      1.549516  
     183A      1.550395   184A      1.558326   185A      1.569043  
     186A      1.594234   187A      1.601908   188A      1.606440  
     189A      1.623738   190A      1.654319   191A      1.670359  
     192A      1.681003   193A      1.682362   194A      1.687310  
     195A      1.697215   196A      1.707556   197A      1.715499  
     198A      1.736385   199A      1.741609   200A      1.750383  
     201A      1.759777   202A      1.772161   203A      1.781516  
     204A      1.786331   205A      1.798654   206A      1.808543  
     207A      1.816067   208A      1.816588   209A      1.835569  
     210A      1.864217   211A      1.868637   212A      1.878909  
     213A      1.880273   214A      1.917146   215A      1.963056  
     216A      1.964789   217A      1.972231   218A      1.985148  
     219A      1.988934   220A      2.000334   221A      2.022468  
     222A      2.029144   223A      2.058830   224A      2.066805  
     225A      2.075717   226A      2.080855   227A      2.111161  
     228A      2.117274   229A      2.143070   230A      2.157071  
     231A      2.175771   232A      2.202154   233A      2.205867  
     234A      2.226717   235A      2.234801   236A      2.257928  
     237A      2.279743   238A      2.289083   239A      2.308560  
     240A      2.315771   241A      2.321042   242A      2.324535  
     243A      2.364976   244A      2.365160   245A      2.394475  
     246A      2.408667   247A      2.430794   248A      2.468909  
     249A      2.473404   250A      2.522379   251A      2.531492  
     252A      2.533140   253A      2.563656   254A      2.592533  
     255A      2.599353   256A      2.612412   257A      2.720832  
     258A      2.827503   259A      2.966801   260A      3.038518  
     261A      3.228089   262A      3.261760   263A      3.279947  
     264A      3.374798   265A      3.387755   266A      3.411146  
     267A      3.457383   268A      3.489983   269A      3.518283  
     270A      3.521069   271A      3.536787   272A      3.546094  
     273A      3.566379   274A      3.604924   275A      3.614304  
     276A      3.614818   277A      3.623315   278A      3.684501  
     279A      3.691287   280A      3.697380   281A      3.708715  
     282A      3.718439   283A      3.723789   284A      3.766235  
     285A      3.780225   286A      3.783966   287A      3.808819  
     288A      3.812120   289A      3.825795   290A      3.838691  
     291A      3.856240   292A      3.862233   293A      3.864981  
     294A      3.910271   295A      3.919524   296A      3.956284  
     297A      3.968592   298A      3.986115   299A      3.991389  
     300A      3.991734   301A      3.998184   302A      4.032742  
     303A      4.034000   304A      4.055842   305A      4.066375  
     306A      4.071535   307A      4.086145   308A      4.112099  
     309A      4.115148   310A      4.185193   311A      4.188609  
     312A      4.191046   313A      4.215877   314A      4.243740  
     315A      4.248691   316A      4.275063   317A      4.275767  
     318A      4.300039   319A      4.320911   320A      4.323155  
     321A      4.346781   322A      4.359387   323A      4.371511  
     324A      4.426639   325A      4.440230   326A      4.459387  
     327A      4.486651   328A      4.547902   329A      4.593956  
     330A      4.601251   331A      4.634451   332A      4.647771  
     333A      4.689980   334A      4.707073   335A      4.720494  
     336A      4.750461   337A      4.754713   338A      4.794374  
     339A      4.828220   340A      4.832113   341A      4.846127  
     342A      4.878492   343A      4.888850   344A      4.898686  
     345A      4.902389   346A      4.933129   347A      4.941013  
     348A      4.955200   349A      4.990495   350A      4.999992  
     351A      5.012634   352A      5.034742   353A      5.069727  
     354A      5.102081   355A      5.146684   356A      5.154708  
     357A      5.174826   358A      5.197243   359A      5.212923  
     360A      5.250036   361A      5.251035   362A      5.274691  
     363A      5.293562   364A      5.296093   365A      5.324006  
     366A      5.371938   367A      5.394463   368A      5.422487  
     369A      5.426111   370A      5.467504   371A      5.478000  
     372A      5.496558   373A      5.510127   374A      5.513560  
     375A      5.580361   376A      5.612178   377A      5.617283  
     378A      5.637288   379A      5.667352   380A      5.707124  
     381A      5.737040   382A      5.748646   383A      5.784417  
     384A      5.812509   385A      5.843825   386A      5.848768  
     387A      5.880588   388A      5.945634   389A      5.957975  
     390A      6.053838   391A      6.124450   392A      6.154579  
     393A      6.159410   394A      6.182301   395A      6.274195  
     396A      6.280148   397A      6.307753   398A      6.340841  
     399A      6.346922   400A      6.372813   401A      6.402932  
     402A      6.445322   403A      6.600361   404A      6.614568  
     405A      6.775854   406A      6.784243   407A      6.815785  
     408A      6.877562   409A      6.938234   410A      6.975686  
     411A     18.100050   412A     18.276322   413A     18.692299  
     414A     18.891725  

    Final Occupation by Irrep:
              A 
    DOCC [    17 ]

  Energy converged.

  @DF-RHF Final Energy:  -157.34995337750155

   => Energetics <=

    Nuclear Repulsion Energy =            133.8595658318198218
    One-Electron Energy =                -475.8018084145718944
    Two-Electron Energy =                 184.5922892052505517
    DFT Exchange-Correlation Energy =       0.0000000000000000
    Empirical Dispersion Energy =           0.0000000000000000
    PCM Polarization Energy =               0.0000000000000000
    EFP Energy =                            0.0000000000000000
    Total Energy =                       -157.3499533775015493



Properties will be evaluated at   0.000000,   0.000000,   0.000000 Bohr

Properties computed using the SCF density matrix

  Nuclear Dipole Moment: (a.u.)
     X:     0.4505      Y:     0.1422      Z:     0.7194

  Electronic Dipole Moment: (a.u.)
     X:    -0.4732      Y:    -0.1500      Z:    -0.7555

  Dipole Moment: (a.u.)
     X:    -0.0227      Y:    -0.0078      Z:    -0.0361     Total:     0.0433

  Dipole Moment: (Debye)
     X:    -0.0577      Y:    -0.0199      Z:    -0.0917     Total:     0.1102


*** tstop() called on gpu-1-16.local at Wed Jun 14 14:25:53 2017
Module time:
	user time   =      74.62 seconds =       1.24 minutes
	system time =       0.60 seconds =       0.01 minutes
	total time  =         75 seconds =       1.25 minutes
Total time:
	user time   =      74.63 seconds =       1.24 minutes
	system time =       0.60 seconds =       0.01 minutes
	total time  =         76 seconds =       1.27 minutes

  //>>>>>>>>>>>>>>>>>>>>>>>>>>>>>>>>>>>//
  //               DFMP2               //
  //<<<<<<<<<<<<<<<<<<<<<<<<<<<<<<<<<<<//

   => Loading Basis Set <=

    Name: (AUG-CC-PVTZ AUX)
    Role: RIFIT
    Keyword: DF_BASIS_MP2
    atoms 1-3, 5-6, 8-9, 11-13 entry H          line    29 file /cbio/jclab/home/chayas/anaconda/envs/py35/share/psi4/basis/aug-cc-pvtz-ri.gbs 
    atoms 4, 7, 10, 14         entry C          line   147 file /cbio/jclab/home/chayas/anaconda/envs/py35/share/psi4/basis/aug-cc-pvtz-ri.gbs 

	 --------------------------------------------------------
	                          DF-MP2                         
	      2nd-Order Density-Fitted Moller-Plesset Theory     
	              RMP2 Wavefunction,   1 Threads             
	                                                         
	        Rob Parrish, Justin Turney, Andy Simmonett,      
	           Ed Hohenstein, and C. David Sherrill          
	 --------------------------------------------------------

   => Auxiliary Basis Set <=

  Basis Set: (AUG-CC-PVTZ AUX)
    Blend: AUG-CC-PVTZ-RI
    Number of shells: 252
    Number of basis function: 884
    Number of Cartesian functions: 1094
    Spherical Harmonics?: true
    Max angular momentum: 4

	 --------------------------------------------------------
	                 NBF =   414, NAUX =   884
	 --------------------------------------------------------
	   CLASS    FOCC     OCC    AOCC    AVIR     VIR    FVIR
	   PAIRS       0      17      17     397     397       0
	 --------------------------------------------------------


         ------------------------------------------------------------
                                     CPHF                           
                                  Rob Parrish                       
         ------------------------------------------------------------

  ==> Geometry <==

    Molecular point group: c1
    Full point group: C1

    Geometry (in Angstrom), charge = 0, multiplicity = 1:

       Center              X                  Y                   Z               Mass       
    ------------   -----------------  -----------------  -----------------  -----------------
           H         -0.018840700958     0.908565746129     1.607637848943     1.007825032070
           H         -1.309840700958     1.958565746129     1.073637848943     1.007825032070
           H         -1.632840700958     0.273565746129     1.401637848943     1.007825032070
           C         -0.911840700958     0.966565746129     1.021637848943    12.000000000000
           H         -1.480840700958     0.675565746129    -1.029362151057     1.007825032070
           H          0.134159299042     1.311565746129    -0.824362151057     1.007825032070
           C         -0.586840700958     0.618565746129    -0.443362151057    12.000000000000
           H         -0.552840700958    -1.444434253871     0.153637848943     1.007825032070
           H         -0.113840700958    -1.181434253871    -1.516362151057     1.007825032070
           C         -0.014840700958    -0.809434253871    -0.518362151057    12.000000000000
           H          1.870159299042    -1.780434253871    -0.176362151057     1.007825032070
           H          1.573159299042    -0.416434253871     0.873637848943     1.007825032070
           H          2.012159299042    -0.153434253871    -0.796362151057     1.007825032070
           C          1.473159299042    -0.788434253871    -0.124362151057    12.000000000000

  Nuclear repulsion =  133.859565831819822
  Reference energy  = -157.349953377501549

  ==> Basis Set <==

  Basis Set: AUG-CC-PVTZ
    Blend: AUG-CC-PVTZ
    Number of shells: 146
    Number of basis function: 414
    Number of Cartesian functions: 470
    Spherical Harmonics?: true
    Max angular momentum: 3

  ==> CGRSolver (by Rob Parrish) <==

   Number of roots    =         1
   Preconditioning    =    JACOBI
   Convergence cutoff =     1E-06
   Maximum iterations =       100

  ==> CPHFRHamiltonian (by Rob Parrish) <== 

  ==> DFJK: Density-Fitted J/K Matrices <==

    J tasked:                  Yes
    K tasked:                  Yes
    wK tasked:                  No
    OpenMP threads:              1
    Integrals threads:           1
    Memory (MB):               715
    Algorithm:                Core
    Integral Cache:           NONE
    Schwarz Cutoff:          1E-12
    Fitting Condition:       1E-12

   => Auxiliary Basis Set <=

  Basis Set: (AUG-CC-PVTZ AUX)
    Blend: AUG-CC-PVTZ-JKFIT
    Number of shells: 260
    Number of basis function: 876
    Number of Cartesian functions: 1074
    Spherical Harmonics?: true
    Max angular momentum: 4

  ==> CPHF Iterations <==

  => Iterations <=

             Iter  Converged  Remaining    Residual
  CGR           1          0          1   8.452E-02
  CGR           2          0          1   1.344E-02
  CGR           3          0          1   3.240E-03
  CGR           4          0          1   8.104E-04
  CGR           5          0          1   1.732E-04
  CGR           6          0          1   3.197E-05
  CGR           7          0          1   5.697E-06
  CGR           8          0          1   1.121E-06
  CGR           9          1          0   1.484E-07

    CGRSolver converged.

  ==> DFCorrGrad: Density-Fitted Correlated Gradients <==

    OpenMP threads:              1
    Integrals threads:           1
    Memory (MB):               715
    Schwarz Cutoff:          0E+00
    Fitting Condition:       1E-12

   => Auxiliary Basis Set <=

  Basis Set: (AUG-CC-PVTZ AUX)
    Blend: AUG-CC-PVTZ-JKFIT
    Number of shells: 260
    Number of basis function: 876
    Number of Cartesian functions: 1074
    Spherical Harmonics?: true
    Max angular momentum: 4

	-----------------------------------------------------------
	 ==================> DF-MP2 Energies <==================== 
	-----------------------------------------------------------
	 Reference Energy          =    -157.3499533775015493 [Eh]
	 Singles Energy            =      -0.0000000000000001 [Eh]
	 Same-Spin Energy          =      -0.1659511121299626 [Eh]
	 Opposite-Spin Energy      =      -0.6394729400067611 [Eh]
	 Correlation Energy        =      -0.8054240521367239 [Eh]
	 Total Energy              =    -158.1553774296382642 [Eh]
	-----------------------------------------------------------
	 ================> DF-SCS-MP2 Energies <================== 
	-----------------------------------------------------------
	 SCS Same-Spin Scale       =       0.3333333333333333 [-]
	 SCS Opposite-Spin Scale   =       1.2000000000000000 [-]
	 SCS Same-Spin Energy      =      -0.0553170373766542 [Eh]
	 SCS Opposite-Spin Energy  =      -0.7673675280081134 [Eh]
	 SCS Correlation Energy    =      -0.8226845653847676 [Eh]
	 SCS Total Energy          =    -158.1726379428863254 [Eh]
	-----------------------------------------------------------


  -Total Gradient:
     Atom            X                  Y                   Z
    ------   -----------------  -----------------  -----------------
       1       -0.007864411088    -0.000618753127    -0.008979514119
       2        0.004225506687    -0.010832252657    -0.004681980920
       3        0.008109128326     0.006736650934    -0.005574204362
       4       -0.005093721036     0.000601904914     0.026418126545
       5        0.009748470461    -0.003211755680     0.007360133667
       6       -0.006997066114    -0.008527685398     0.006874514875
       7        0.002086145310     0.022108968975    -0.025189750625
       8        0.007957296989     0.008926283461    -0.005962625234
       9        0.001510853163     0.006898658196     0.011098354790
      10       -0.018995134378    -0.027945462918    -0.002541221981
      11       -0.008062778290     0.009925777888    -0.001095995854
      12       -0.004289817294    -0.003300296287    -0.010567641558
      13       -0.007250488221    -0.006310347238     0.006599834820
      14        0.024916015485     0.005548308938     0.006241969959


*** tstop() called on gpu-1-16.local at Wed Jun 14 14:31:05 2017
Module time:
	user time   =     383.56 seconds =       6.39 minutes
	system time =       3.60 seconds =       0.06 minutes
	total time  =        387 seconds =       6.45 minutes
Total time:
	user time   =     383.57 seconds =       6.39 minutes
	system time =       3.60 seconds =       0.06 minutes
	total time  =        388 seconds =       6.47 minutes

			-----------------------------------------
			 OPTKING 2.0: for geometry optimizations 
			  - R.A. King,  Bethel University        
			-----------------------------------------

	Internal coordinates to be generated automatically.
	Detected frag 1 with atoms:  1 2 3 4 5 6 7 8 9 10 11 12 13 14
	---Fragment 1 Bond Connectivity---
	 1 : 4
	 2 : 4
	 3 : 4
	 4 : 1 2 3 7
	 5 : 7
	 6 : 7
	 7 : 4 5 6 10
	 8 : 10
	 9 : 10
	 10 : 7 8 9 14
	 11 : 14
	 12 : 14
	 13 : 14
	 14 : 10 11 12 13

	Assuming in current code that numbering for constraints corresponds to unified fragment.
	Fixed dihedral atom list: 
	    14    10     7     4
	---Fragment 1 Geometry and Gradient---
	 H          -0.0356037650        1.7169404339        3.0379952554
	 H          -2.4752402025        3.7011528734        2.0288815004
	 H          -3.0856217434        0.5169643395        2.6487116720
	 C          -1.7231292016        1.8265445496        1.9306157415
	 H          -2.7983833712        1.2766342449       -1.9452125571
	 H           0.2535243334        2.4785000655       -1.5578186998
	 C          -1.1089682084        1.1689198554       -0.8378330432
	 H          -1.0447175199       -2.7295851568        0.2903334581
	 H          -0.2151277476       -2.2325871838       -2.8655091838
	 C          -0.0280448604       -1.5296090624       -0.9795625032
	 H           3.5340889001       -3.3645331374       -0.3332761657
	 H           2.9728402386       -0.7869466922        1.6509362738
	 H           3.8024300109       -0.2899487192       -1.5049063681
	 C           2.7838676253       -1.4899248136       -0.2350104068
	            -0.0078644111       -0.0006187531       -0.0089795141
	             0.0042255067       -0.0108322527       -0.0046819809
	             0.0081091283        0.0067366509       -0.0055742044
	            -0.0050937210        0.0006019049        0.0264181265
	             0.0097484705       -0.0032117557        0.0073601337
	            -0.0069970661       -0.0085276854        0.0068745149
	             0.0020861453        0.0221089690       -0.0251897506
	             0.0079572970        0.0089262835       -0.0059626252
	             0.0015108532        0.0068986582        0.0110983548
	            -0.0189951344       -0.0279454629       -0.0025412220
	            -0.0080627783        0.0099257779       -0.0010959959
	            -0.0042898173       -0.0033002963       -0.0105676416
	            -0.0072504882       -0.0063103472        0.0065998348
	             0.0249160155        0.0055483089        0.0062419700

	Previous optimization step data not found.  Starting new optimization.

	---Fragment 1 Intrafragment Coordinates---
	 - Coordinate -           - BOHR/RAD -       - ANG/DEG -
	 R(1,4)           =         2.021397	       1.069677
	 R(2,4)           =         2.022247	       1.070127
	 R(3,4)           =         2.021645	       1.069808
	 R(4,7)           =         2.911009	       1.540440
	 R(5,7)           =         2.022873	       1.070458
	 R(6,7)           =         2.022317	       1.070164
	 R(7,10)          =         2.910419	       1.540128
	 R(8,10)          =         2.021436	       1.069698
	 R(9,10)          =         2.021379	       1.069668
	 R(10,14)         =         2.909087	       1.539422
	 R(11,14)         =         2.021545	       1.069756
	 R(12,14)         =         2.021555	       1.069761
	 R(13,14)         =         2.022387	       1.070201
	 B(1,4,2)         =         1.911481	     109.519780
	 B(1,4,3)         =         1.910197	     109.446219
	 B(1,4,7)         =         1.909876	     109.427832
	 B(2,4,3)         =         1.909825	     109.424922
	 B(2,4,7)         =         1.911442	     109.517578
	 B(3,4,7)         =         1.910978	     109.490986
	 B(4,7,5)         =         1.909633	     109.413931
	 B(4,7,6)         =         1.911803	     109.538266
	 B(4,7,10)        =         1.911480	     109.519756
	 B(5,7,6)         =         1.910588	     109.468657
	 B(5,7,10)        =         1.910161	     109.444186
	 B(6,7,10)        =         1.910132	     109.442487
	 B(7,10,8)        =         1.910303	     109.452301
	 B(7,10,9)        =         1.910824	     109.482155
	 B(7,10,14)       =         1.911213	     109.504437
	 B(8,10,9)        =         1.910417	     109.458846
	 B(8,10,14)       =         1.910766	     109.478806
	 B(9,10,14)       =         1.910276	     109.450772
	 B(10,14,11)      =         1.910943	     109.488965
	 B(10,14,12)      =         1.911204	     109.503926
	 B(10,14,13)      =         1.911557	     109.524173
	 B(11,14,12)      =         1.910410	     109.458432
	 B(11,14,13)      =         1.910054	     109.438058
	 B(12,14,13)      =         1.909629	     109.413709
	 D(1,4,7,5)       =         3.140453	     179.934716
	 D(1,4,7,6)       =        -1.048288	     -60.062492
	 D(1,4,7,10)      =         1.046730	      59.973211
	 D(2,4,7,5)       =        -1.047267	     -60.004004
	 D(2,4,7,6)       =         1.047176	      59.998788
	 D(2,4,7,10)      =        -3.140991	    -179.965509
	 D(3,4,7,5)       =         1.046845	      59.979796
	 D(3,4,7,6)       =         3.141289	     179.982589
	 D(3,4,7,10)      =        -1.046878	     -59.981708
	 D(4,7,10,8)      =         0.698264	      40.007593
	 D(4,7,10,9)      =         2.792309	     159.987547
	 D(4,7,10,14)     =        -1.396446	     -80.010449
	 D(5,7,10,8)      =        -1.395136	     -79.935392
	 D(5,7,10,9)      =         0.698909	      40.044562
	 D(5,7,10,14)     =         2.793340	     160.046566
	 D(6,7,10,8)      =         2.794305	     160.101857
	 D(6,7,10,9)      =        -1.394836	     -79.918188
	 D(6,7,10,14)     =         0.699595	      40.083816
	 D(7,10,14,11)    =         3.141408	     179.989448
	 D(7,10,14,12)    =         1.046747	      59.974196
	 D(7,10,14,13)    =        -1.047335	     -60.007849
	 D(8,10,14,11)    =         1.046982	      59.987626
	 D(8,10,14,12)    =        -1.047680	     -60.027626
	 D(8,10,14,13)    =         3.141424	     179.990329
	 D(9,10,14,11)    =        -1.047012	     -59.989345
	 D(9,10,14,12)    =         3.141512	     179.995403
	 D(9,10,14,13)    =         1.047431	      60.013359

	Current energy   :      -158.1553774296

	Generating empirical Hessian (Schlegel '84) for each fragment.
	Adding user-defined constraint: Fragment 1; Coordinate 49:
		Value =    -1.396446; Fixed value    =    -1.396263
		Force =     0.000091; Force constant =     0.500000
	Removing off-diagonal coupling between coordinate 49 and others.
	Taking RFO optimization step.
	Going to follow RFO solution 1.
	Using RFO vector 1.

	Determining step-restricting scale parameter for RS-RFO.
	Maximum step size allowed    0.10000

	 Iter      |step|        alpha        rfo_root  
	------------------------------------------------
	    0     0.19023       1.00000           1
	    1     0.15181       5.56682           1
	    2     0.12129      16.42811           1
	    3     0.10535      28.45100           1
	    4     0.10047      33.73781           1
	    5     0.10000      34.28813           1
	------------------------------------------------
	Norm of target step-size    0.10000
	Projected energy change by RFO approximation:        -0.0043155090

	Back-transformation to cartesian coordinates...
	Successfully converged to displaced geometry.

	--- Internal Coordinate Step in ANG or DEG, aJ/ANG or AJ/DEG ---
	 ---------------------------------------------------------------------------
	   Coordinate                Previous        Force       Change         New 
	   ----------                --------       ------       ------       ------
	    1 R(1,4)          =      1.069677     0.094343     0.011706     1.081383
	    2 R(2,4)          =      1.070127     0.097550     0.012117     1.082244
	    3 R(3,4)          =      1.069808     0.097291     0.012075     1.081884
	    4 R(4,7)          =      1.540440    -0.049706    -0.007429     1.533011
	    5 R(5,7)          =      1.070458     0.101680     0.012640     1.083099
	    6 R(6,7)          =      1.070164     0.104498     0.012981     1.083145
	    7 R(7,10)         =      1.540128    -0.033389    -0.004987     1.535141
	    8 R(8,10)         =      1.069698     0.107489     0.013338     1.083035
	    9 R(9,10)         =      1.069668     0.106228     0.013180     1.082848
	   10 R(10,14)        =      1.539422    -0.045453    -0.006779     1.532643
	   11 R(11,14)        =      1.069756     0.100045     0.012416     1.082171
	   12 R(12,14)        =      1.069761     0.093982     0.011663     1.081424
	   13 R(13,14)        =      1.070201     0.095075     0.011812     1.082013
	   14 B(1,4,2)        =    109.519780    -0.000310    -0.768110   108.751671
	   15 B(1,4,3)        =    109.446219    -0.000180    -0.451261   108.994958
	   16 B(1,4,7)        =    109.427832     0.000279     0.686892   110.114724
	   17 B(2,4,3)        =    109.424922    -0.000212    -0.518526   108.906396
	   18 B(2,4,7)        =    109.517578     0.000365     0.910317   110.427895
	   19 B(3,4,7)        =    109.490986     0.000057     0.122212   109.613198
	   20 B(4,7,5)        =    109.413931    -0.000210    -0.434880   108.979051
	   21 B(4,7,6)        =    109.538266    -0.000137    -0.224860   109.313406
	   22 B(4,7,10)       =    109.519756     0.000651     1.441300   110.961056
	   23 B(5,7,6)        =    109.468657    -0.000003    -0.303293   109.165364
	   24 B(5,7,10)       =    109.444186    -0.000086    -0.054392   109.389795
	   25 B(6,7,10)       =    109.442487    -0.000215    -0.435117   109.007370
	   26 B(7,10,8)       =    109.452301    -0.000220    -0.449076   109.003225
	   27 B(7,10,9)       =    109.482155    -0.000092    -0.070644   109.411511
	   28 B(7,10,14)      =    109.504437     0.000660     1.461287   110.965724
	   29 B(8,10,9)       =    109.458846     0.000000    -0.298215   109.160632
	   30 B(8,10,14)      =    109.478806    -0.000134    -0.208255   109.270551
	   31 B(9,10,14)      =    109.450772    -0.000215    -0.446636   109.004136
	   32 B(10,14,11)     =    109.488965     0.000374     0.931573   110.420538
	   33 B(10,14,12)     =    109.503926     0.000264     0.650668   110.154593
	   34 B(10,14,13)     =    109.524173     0.000057     0.120946   109.645119
	   35 B(11,14,12)     =    109.458432    -0.000304    -0.751805   108.706627
	   36 B(11,14,13)     =    109.438058    -0.000216    -0.530295   108.907763
	   37 B(12,14,13)     =    109.413709    -0.000175    -0.440743   108.972966
	   38 D(1,4,7,5)      =    179.934716     0.000025     0.364807   180.299523
	   39 D(1,4,7,6)      =    -60.062492    -0.000025    -0.402509   -60.465001
	   40 D(1,4,7,10)     =     59.973211    -0.000012    -0.184968    59.788243
	   41 D(2,4,7,5)      =    -60.004004     0.000028     0.417976   -59.586029
	   42 D(2,4,7,6)      =     59.998788    -0.000021    -0.349340    59.649448
	   43 D(2,4,7,10)     =   -179.965509    -0.000009    -0.131799  -180.097308
	   44 D(3,4,7,5)      =     59.979796     0.000028     0.419960    60.399756
	   45 D(3,4,7,6)      =    179.982589    -0.000021    -0.347356   179.635233
	   46 D(3,4,7,10)     =    -59.981708    -0.000009    -0.129815   -60.111523
	   47 D(4,7,10,8)     =     40.007593     0.000027     0.441435    40.449028
	   48 D(4,7,10,9)     =    159.987547    -0.000016    -0.236360   159.751188
	   49 D(4,7,10,14)    =    -80.010449     0.000003     0.077467   -79.932982
	   50 D(5,7,10,8)     =    -79.935392     0.000007     0.116830   -79.818562
	   51 D(5,7,10,9)     =     40.044562    -0.000036    -0.560965    39.483598
	   52 D(5,7,10,14)    =    160.046566    -0.000017    -0.247138   159.799428
	   53 D(6,7,10,8)     =    160.101857     0.000050     0.782066   160.883924
	   54 D(6,7,10,9)     =    -79.918188     0.000006     0.104272   -79.813916
	   55 D(6,7,10,14)    =     40.083816     0.000026     0.418098    40.501914
	   56 D(7,10,14,11)   =    179.989448    -0.000008    -0.121642   179.867806
	   57 D(7,10,14,12)   =     59.974196    -0.000013    -0.185727    59.788469
	   58 D(7,10,14,13)   =    -60.007849    -0.000009    -0.121183   -60.129032
	   59 D(8,10,14,11)   =     59.987626    -0.000021    -0.343102    59.644524
	   60 D(8,10,14,12)   =    -60.027626    -0.000025    -0.407187   -60.434813
	   61 D(8,10,14,13)   =    179.990329    -0.000021    -0.342643   179.647686
	   62 D(9,10,14,11)   =    -59.989345     0.000028     0.414533   -59.574811
	   63 D(9,10,14,12)   =    179.995403     0.000024     0.350448   180.345852
	   64 D(9,10,14,13)   =     60.013359     0.000028     0.414992    60.428351
	 ---------------------------------------------------------------------------
	Successfully symmetrized geometry.
	 Forces used to impose fixed constraints are not included.
	  Forces zeroed: 49 

  ==> Convergence Check <==

  Measures of convergence in internal coordinates in au.
  Criteria marked as inactive (o), active & met (*), and active & unmet ( ).
  --------------------------------------------------------------------------------------------- ~
   Step     Total Energy     Delta E     MAX Force     RMS Force      MAX Disp      RMS Disp    ~
  --------------------------------------------------------------------------------------------- ~
    Convergence Criteria    1.00e-06 *    3.00e-04 *             o    1.20e-03 *             o  ~
  --------------------------------------------------------------------------------------------- ~
      1    -158.15537743   -1.58e+02      1.30e-02      5.48e-03 o    2.55e-02      1.25e-02 o  ~
  ---------------------------------------------------------------------------------------------

	Writing optimization data to binary file.
	Structure for next step:
	Cartesian Geometry (in Angstrom)
	    H    -0.0449509482   0.9218696298   1.6391737169
	    H    -1.3678507607   1.9454167327   1.0956964197
	    H    -1.6530176045   0.2382717286   1.4194768851
	    C    -0.9395326394   0.9535515943   1.0324541121
	    H    -1.5087098704   0.6504434788  -1.0138563247
	    H     0.1071665929   1.3307160778  -0.8070694737
	    C    -0.6022438483   0.6081570406  -0.4225580871
	    H    -0.5226092999  -1.4622764219   0.1425513276
	    H    -0.0912679643  -1.1583205601  -1.5417654035
	    C     0.0087632708  -0.7963357674  -0.5261275393
	    H     1.9146513983  -1.7719148752  -0.2206590918
	    H     1.6146094612  -0.4242677274   0.8679497095
	    H     2.0315923023  -0.1186556827  -0.8154445774
	    C     1.4936300967  -0.7777348022  -0.1468917882
			--------------------------
			 OPTKING Finished Execution 
			--------------------------

    Structure for next step:
    Molecular point group: c1
    Full point group: C1

    Geometry (in Angstrom), charge = 0, multiplicity = 1:

    H           -0.045136367893     0.921798640211     1.638922883824
    H           -1.368036180424     1.945345743087     1.095445586538
    H           -1.653203024230     0.238200738980     1.419226051942
    C           -0.939718059095     0.953480604671     1.032203278999
    H           -1.508895290124     0.650372489175    -1.014107157791
    H            0.106981173160     1.330645088225    -0.807320306800
    C           -0.602429268072     0.608086050957    -0.422808920171
    H           -0.522794719584    -1.462347411531     0.142300494472
    H           -0.091453384001    -1.158391549685    -1.542016236639
    C            0.008577851085    -0.796406757061    -0.526378372443
    H            1.914465978565    -1.771985864808    -0.220909924884
    H            1.614424041495    -0.424338717005     0.867698876376
    H            2.031406882568    -0.118726672288    -0.815695410472
    C            1.493444676926    -0.777805791807    -0.147142621347

gradient() will perform analytic gradient computation.

*** tstart() called on gpu-1-16.local
*** at Wed Jun 14 14:31:05 2017

    SCF Algorithm Type (re)set to DF.

*** tstart() called on gpu-1-16.local
*** at Wed Jun 14 14:31:05 2017

   => Loading Basis Set <=

    Name: AUG-CC-PVTZ
    Role: ORBITAL
    Keyword: BASIS
    atoms 1-3, 5-6, 8-9, 11-13 entry H          line    34 file /cbio/jclab/home/chayas/anaconda/envs/py35/share/psi4/basis/aug-cc-pvtz.gbs 
    atoms 4, 7, 10, 14         entry C          line   221 file /cbio/jclab/home/chayas/anaconda/envs/py35/share/psi4/basis/aug-cc-pvtz.gbs 


         ---------------------------------------------------------
                                   SCF
            by Justin Turney, Rob Parrish, and Andy Simmonett
                              RHF Reference
                        1 Threads,    953 MiB Core
         ---------------------------------------------------------

  ==> Geometry <==

    Molecular point group: c1
    Full point group: C1

    Geometry (in Angstrom), charge = 0, multiplicity = 1:

       Center              X                  Y                   Z               Mass       
    ------------   -----------------  -----------------  -----------------  -----------------
           H         -0.045136367893     0.921798640211     1.638922883824     1.007825032070
           H         -1.368036180424     1.945345743087     1.095445586538     1.007825032070
           H         -1.653203024230     0.238200738980     1.419226051942     1.007825032070
           C         -0.939718059095     0.953480604671     1.032203278999    12.000000000000
           H         -1.508895290124     0.650372489175    -1.014107157791     1.007825032070
           H          0.106981173160     1.330645088225    -0.807320306800     1.007825032070
           C         -0.602429268072     0.608086050957    -0.422808920171    12.000000000000
           H         -0.522794719584    -1.462347411531     0.142300494472     1.007825032070
           H         -0.091453384001    -1.158391549685    -1.542016236639     1.007825032070
           C          0.008577851085    -0.796406757061    -0.526378372443    12.000000000000
           H          1.914465978565    -1.771985864808    -0.220909924884     1.007825032070
           H          1.614424041495    -0.424338717005     0.867698876376     1.007825032070
           H          2.031406882568    -0.118726672288    -0.815695410472     1.007825032070
           C          1.493444676926    -0.777805791807    -0.147142621347    12.000000000000

  Running in c1 symmetry.

  Rotational constants: A =      0.46445  B =      0.15513  C =      0.13813 [cm^-1]
  Rotational constants: A =  13923.94196  B =   4650.72064  C =   4140.93391 [MHz]
  Nuclear repulsion =  133.240213118761119

  Charge       = 0
  Multiplicity = 1
  Electrons    = 34
  Nalpha       = 17
  Nbeta        = 17

  ==> Algorithm <==

  SCF Algorithm Type is DF.
  DIIS enabled.
  MOM disabled.
  Fractional occupation disabled.
  Guess Type is READ.
  Energy threshold   = 1.00e-10
  Density threshold  = 1.00e-10
  Integral threshold = 0.00e+00

  ==> Primary Basis <==

  Basis Set: AUG-CC-PVTZ
    Blend: AUG-CC-PVTZ
    Number of shells: 146
    Number of basis function: 414
    Number of Cartesian functions: 470
    Spherical Harmonics?: true
    Max angular momentum: 3

   => Loading Basis Set <=

    Name: (AUG-CC-PVTZ AUX)
    Role: JKFIT
    Keyword: DF_BASIS_SCF
    atoms 1-3, 5-6, 8-9, 11-13 entry H          line    69 file /cbio/jclab/home/chayas/anaconda/envs/py35/share/psi4/basis/aug-cc-pvtz-jkfit.gbs 
    atoms 4, 7, 10, 14         entry C          line   161 file /cbio/jclab/home/chayas/anaconda/envs/py35/share/psi4/basis/aug-cc-pvtz-jkfit.gbs 

  Reading orbitals from file 180, no projection.

  ==> Pre-Iterations <==

   -------------------------------------------------------
    Irrep   Nso     Nmo     Nalpha   Nbeta   Ndocc  Nsocc
   -------------------------------------------------------
     A        414     414       0       0       0       0
   -------------------------------------------------------
    Total     414     414      17      17      17       0
   -------------------------------------------------------

  ==> Integral Setup <==

  ==> DFJK: Density-Fitted J/K Matrices <==

    J tasked:                  Yes
    K tasked:                  Yes
    wK tasked:                  No
    OpenMP threads:              1
    Integrals threads:           1
    Memory (MB):               715
    Algorithm:                Core
    Integral Cache:           NONE
    Schwarz Cutoff:          1E-12
    Fitting Condition:       1E-12

   => Auxiliary Basis Set <=

  Basis Set: (AUG-CC-PVTZ AUX)
    Blend: AUG-CC-PVTZ-JKFIT
    Number of shells: 260
    Number of basis function: 876
    Number of Cartesian functions: 1074
    Spherical Harmonics?: true
    Max angular momentum: 4

  Minimum eigenvalue in the overlap matrix is 6.7461697794E-06.
  Using Symmetric Orthogonalization.

  SCF Guess: Orbitals guess was supplied from a previous computation.

  ==> Iterations <==

                           Total Energy        Delta E     RMS |[F,P]|

   @DF-RHF iter   0:  -157.26483785009600   -1.57265e+02   1.65847e-04 
   @DF-RHF iter   1:  -157.35212091317334   -8.72831e-02   7.00303e-05 
   @DF-RHF iter   2:  -157.35263031852512   -5.09405e-04   3.66897e-05 DIIS
   @DF-RHF iter   3:  -157.35274588486431   -1.15566e-04   5.97746e-06 DIIS
   @DF-RHF iter   4:  -157.35275413079060   -8.24593e-06   1.28513e-06 DIIS
   @DF-RHF iter   5:  -157.35275446103469   -3.30244e-07   4.08473e-07 DIIS
   @DF-RHF iter   6:  -157.35275448612845   -2.50938e-08   8.68345e-08 DIIS
   @DF-RHF iter   7:  -157.35275448761089   -1.48245e-09   1.74374e-08 DIIS
   @DF-RHF iter   8:  -157.35275448767041   -5.95151e-11   4.07964e-09 DIIS
   @DF-RHF iter   9:  -157.35275448767510   -4.68958e-12   8.17787e-10 DIIS
   @DF-RHF iter  10:  -157.35275448767635   -1.25056e-12   1.57272e-10 DIIS
   @DF-RHF iter  11:  -157.35275448767180    4.54747e-12   3.30859e-11 DIIS

  ==> Post-Iterations <==

    Orbital Energies (a.u.)
    -----------------------

    Doubly Occupied:                                                      

       1A    -11.210330     2A    -11.209732     3A    -11.204085  
       4A    -11.204060     5A     -1.071947     6A     -0.976050  
       7A     -0.869371     8A     -0.781672     9A     -0.626927  
      10A     -0.622664    11A     -0.577601    12A     -0.537084  
      13A     -0.526582    14A     -0.504224    15A     -0.469461  
      16A     -0.456607    17A     -0.452453  

    Virtual:                                                              

      18A      0.032086    19A      0.037770    20A      0.039505  
      21A      0.041154    22A      0.057427    23A      0.058913  
      24A      0.059586    25A      0.061083    26A      0.077734  
      27A      0.085688    28A      0.102595    29A      0.122186  
      30A      0.122204    31A      0.126119    32A      0.128935  
      33A      0.132276    34A      0.138792    35A      0.144313  
      36A      0.154661    37A      0.155189    38A      0.162091  
      39A      0.166452    40A      0.173074    41A      0.192300  
      42A      0.212660    43A      0.214594    44A      0.233599  
      45A      0.246073    46A      0.255803    47A      0.257706  
      48A      0.275787    49A      0.277822    50A      0.299926  
      51A      0.300377    52A      0.304207    53A      0.310686  
      54A      0.322352    55A      0.330989    56A      0.331387  
      57A      0.346015    58A      0.359770    59A      0.361219  
      60A      0.361234    61A      0.363621    62A      0.369730  
      63A      0.381478    64A      0.387251    65A      0.387632  
      66A      0.394666    67A      0.404907    68A      0.407811  
      69A      0.420256    70A      0.428025    71A      0.428311  
      72A      0.437185    73A      0.438294    74A      0.443693  
      75A      0.450288    76A      0.458043    77A      0.469098  
      78A      0.474925    79A      0.477962    80A      0.481653  
      81A      0.489907    82A      0.494806    83A      0.499880  
      84A      0.506798    85A      0.517898    86A      0.521060  
      87A      0.526092    88A      0.529391    89A      0.536332  
      90A      0.550441    91A      0.558292    92A      0.573263  
      93A      0.577043    94A      0.590451    95A      0.598119  
      96A      0.603218    97A      0.605221    98A      0.615523  
      99A      0.622872   100A      0.638104   101A      0.641512  
     102A      0.650410   103A      0.659939   104A      0.680247  
     105A      0.689273   106A      0.719000   107A      0.743842  
     108A      0.788393   109A      0.794995   110A      0.816813  
     111A      0.817114   112A      0.828088   113A      0.835253  
     114A      0.837191   115A      0.839653   116A      0.858722  
     117A      0.861436   118A      0.867701   119A      0.880388  
     120A      0.883036   121A      0.886071   122A      0.892713  
     123A      0.911948   124A      0.914467   125A      0.919683  
     126A      0.929110   127A      0.935660   128A      0.945547  
     129A      0.951388   130A      0.972324   131A      0.979380  
     132A      0.984297   133A      0.994560   134A      1.004935  
     135A      1.012545   136A      1.013647   137A      1.032678  
     138A      1.044763   139A      1.054098   140A      1.062766  
     141A      1.071008   142A      1.089365   143A      1.107030  
     144A      1.111669   145A      1.118827   146A      1.127782  
     147A      1.128768   148A      1.146129   149A      1.150891  
     150A      1.156886   151A      1.161910   152A      1.190302  
     153A      1.192291   154A      1.194881   155A      1.195080  
     156A      1.209693   157A      1.228933   158A      1.237866  
     159A      1.248384   160A      1.261656   161A      1.267732  
     162A      1.275137   163A      1.286560   164A      1.290211  
     165A      1.310652   166A      1.331020   167A      1.333859  
     168A      1.343754   169A      1.365175   170A      1.371109  
     171A      1.375964   172A      1.389076   173A      1.409252  
     174A      1.436521   175A      1.438508   176A      1.446670  
     177A      1.464706   178A      1.479105   179A      1.484864  
     180A      1.519231   181A      1.531001   182A      1.544623  
     183A      1.547829   184A      1.556717   185A      1.568384  
     186A      1.587029   187A      1.596681   188A      1.610933  
     189A      1.617490   190A      1.648478   191A      1.661105  
     192A      1.675256   193A      1.676515   194A      1.684064  
     195A      1.690540   196A      1.707470   197A      1.710921  
     198A      1.729772   199A      1.735047   200A      1.748897  
     201A      1.756387   202A      1.767266   203A      1.775422  
     204A      1.779106   205A      1.795202   206A      1.806177  
     207A      1.813805   208A      1.816137   209A      1.831740  
     210A      1.860764   211A      1.861408   212A      1.872493  
     213A      1.874854   214A      1.910929   215A      1.948158  
     216A      1.954704   217A      1.966057   218A      1.981693  
     219A      1.988299   220A      1.994914   221A      2.014613  
     222A      2.022066   223A      2.053997   224A      2.056339  
     225A      2.067018   226A      2.071957   227A      2.099300  
     228A      2.109393   229A      2.134858   230A      2.145832  
     231A      2.161621   232A      2.196647   233A      2.201250  
     234A      2.222539   235A      2.229014   236A      2.254192  
     237A      2.272511   238A      2.279936   239A      2.304634  
     240A      2.307899   241A      2.313315   242A      2.319668  
     243A      2.355666   244A      2.363135   245A      2.385171  
     246A      2.394581   247A      2.425814   248A      2.457111  
     249A      2.474354   250A      2.518716   251A      2.527141  
     252A      2.531400   253A      2.562812   254A      2.585753  
     255A      2.591952   256A      2.602408   257A      2.725426  
     258A      2.835874   259A      2.968073   260A      3.051930  
     261A      3.221832   262A      3.267686   263A      3.272923  
     264A      3.381955   265A      3.385900   266A      3.412703  
     267A      3.458430   268A      3.489396   269A      3.512549  
     270A      3.523661   271A      3.535692   272A      3.543271  
     273A      3.558505   274A      3.598294   275A      3.612009  
     276A      3.614365   277A      3.619951   278A      3.689157  
     279A      3.691801   280A      3.700776   281A      3.710575  
     282A      3.712086   283A      3.722130   284A      3.763494  
     285A      3.776904   286A      3.783653   287A      3.806391  
     288A      3.807179   289A      3.825016   290A      3.837665  
     291A      3.850966   292A      3.851795   293A      3.866442  
     294A      3.899820   295A      3.920069   296A      3.946044  
     297A      3.962995   298A      3.980153   299A      3.980379  
     300A      3.989499   301A      3.991306   302A      4.027506  
     303A      4.031030   304A      4.037130   305A      4.046928  
     306A      4.056851   307A      4.076177   308A      4.105622  
     309A      4.116527   310A      4.162853   311A      4.184788  
     312A      4.190802   313A      4.201234   314A      4.232042  
     315A      4.242070   316A      4.254762   317A      4.260118  
     318A      4.295591   319A      4.304539   320A      4.314826  
     321A      4.339964   322A      4.344213   323A      4.361434  
     324A      4.417088   325A      4.421566   326A      4.433906  
     327A      4.479229   328A      4.526203   329A      4.577975  
     330A      4.578519   331A      4.619409   332A      4.629347  
     333A      4.665221   334A      4.683277   335A      4.703972  
     336A      4.728038   337A      4.746829   338A      4.777004  
     339A      4.805060   340A      4.810197   341A      4.833027  
     342A      4.863097   343A      4.875006   344A      4.881207  
     345A      4.881723   346A      4.917445   347A      4.927718  
     348A      4.928565   349A      4.966851   350A      4.980719  
     351A      4.998543   352A      5.020447   353A      5.055584  
     354A      5.079305   355A      5.115072   356A      5.128892  
     357A      5.139451   358A      5.179663   359A      5.194314  
     360A      5.230885   361A      5.234223   362A      5.255021  
     363A      5.272670   364A      5.278686   365A      5.297752  
     366A      5.335179   367A      5.375504   368A      5.398224  
     369A      5.402344   370A      5.447897   371A      5.452063  
     372A      5.465394   373A      5.482111   374A      5.485356  
     375A      5.545572   376A      5.583235   377A      5.595008  
     378A      5.612803   379A      5.633011   380A      5.670699  
     381A      5.711394   382A      5.719203   383A      5.749357  
     384A      5.800424   385A      5.804298   386A      5.807905  
     387A      5.832709   388A      5.903447   389A      5.919467  
     390A      6.022558   391A      6.073830   392A      6.102666  
     393A      6.109315   394A      6.177546   395A      6.223429  
     396A      6.229213   397A      6.267611   398A      6.297963  
     399A      6.302129   400A      6.342883   401A      6.350844  
     402A      6.421287   403A      6.591951   404A      6.593919  
     405A      6.770509   406A      6.772472   407A      6.814962  
     408A      6.871865   409A      6.931540   410A      6.974220  
     411A     17.907519   412A     18.102489   413A     18.607682  
     414A     18.679024  

    Final Occupation by Irrep:
              A 
    DOCC [    17 ]

  Energy converged.

  @DF-RHF Final Energy:  -157.35275448767180

   => Energetics <=

    Nuclear Repulsion Energy =            133.2402131187611189
    One-Electron Energy =                -474.5842341262940067
    Two-Electron Energy =                 183.9912665198610853
    DFT Exchange-Correlation Energy =       0.0000000000000000
    Empirical Dispersion Energy =           0.0000000000000000
    PCM Polarization Energy =               0.0000000000000000
    EFP Energy =                            0.0000000000000000
    Total Energy =                       -157.3527544876718025



Properties will be evaluated at   0.000000,   0.000000,   0.000000 Bohr

Properties computed using the SCF density matrix

  Nuclear Dipole Moment: (a.u.)
     X:     0.4479      Y:     0.1412      Z:     0.7158

  Electronic Dipole Moment: (a.u.)
     X:    -0.4683      Y:    -0.1479      Z:    -0.7484

  Dipole Moment: (a.u.)
     X:    -0.0205      Y:    -0.0067      Z:    -0.0326     Total:     0.0391

  Dipole Moment: (Debye)
     X:    -0.0520      Y:    -0.0170      Z:    -0.0829     Total:     0.0993


*** tstop() called on gpu-1-16.local at Wed Jun 14 14:32:24 2017
Module time:
	user time   =      78.38 seconds =       1.31 minutes
	system time =       0.65 seconds =       0.01 minutes
	total time  =         79 seconds =       1.32 minutes
Total time:
	user time   =     462.00 seconds =       7.70 minutes
	system time =       4.32 seconds =       0.07 minutes
	total time  =        467 seconds =       7.78 minutes

  //>>>>>>>>>>>>>>>>>>>>>>>>>>>>>>>>>>>//
  //               DFMP2               //
  //<<<<<<<<<<<<<<<<<<<<<<<<<<<<<<<<<<<//

   => Loading Basis Set <=

    Name: (AUG-CC-PVTZ AUX)
    Role: RIFIT
    Keyword: DF_BASIS_MP2
    atoms 1-3, 5-6, 8-9, 11-13 entry H          line    29 file /cbio/jclab/home/chayas/anaconda/envs/py35/share/psi4/basis/aug-cc-pvtz-ri.gbs 
    atoms 4, 7, 10, 14         entry C          line   147 file /cbio/jclab/home/chayas/anaconda/envs/py35/share/psi4/basis/aug-cc-pvtz-ri.gbs 

	 --------------------------------------------------------
	                          DF-MP2                         
	      2nd-Order Density-Fitted Moller-Plesset Theory     
	              RMP2 Wavefunction,   1 Threads             
	                                                         
	        Rob Parrish, Justin Turney, Andy Simmonett,      
	           Ed Hohenstein, and C. David Sherrill          
	 --------------------------------------------------------

   => Auxiliary Basis Set <=

  Basis Set: (AUG-CC-PVTZ AUX)
    Blend: AUG-CC-PVTZ-RI
    Number of shells: 252
    Number of basis function: 884
    Number of Cartesian functions: 1094
    Spherical Harmonics?: true
    Max angular momentum: 4

	 --------------------------------------------------------
	                 NBF =   414, NAUX =   884
	 --------------------------------------------------------
	   CLASS    FOCC     OCC    AOCC    AVIR     VIR    FVIR
	   PAIRS       0      17      17     397     397       0
	 --------------------------------------------------------


         ------------------------------------------------------------
                                     CPHF                           
                                  Rob Parrish                       
         ------------------------------------------------------------

  ==> Geometry <==

    Molecular point group: c1
    Full point group: C1

    Geometry (in Angstrom), charge = 0, multiplicity = 1:

       Center              X                  Y                   Z               Mass       
    ------------   -----------------  -----------------  -----------------  -----------------
           H         -0.045136367893     0.921798640211     1.638922883824     1.007825032070
           H         -1.368036180424     1.945345743087     1.095445586538     1.007825032070
           H         -1.653203024230     0.238200738980     1.419226051942     1.007825032070
           C         -0.939718059095     0.953480604671     1.032203278999    12.000000000000
           H         -1.508895290124     0.650372489175    -1.014107157791     1.007825032070
           H          0.106981173160     1.330645088225    -0.807320306800     1.007825032070
           C         -0.602429268072     0.608086050957    -0.422808920171    12.000000000000
           H         -0.522794719584    -1.462347411531     0.142300494472     1.007825032070
           H         -0.091453384001    -1.158391549685    -1.542016236639     1.007825032070
           C          0.008577851085    -0.796406757061    -0.526378372443    12.000000000000
           H          1.914465978565    -1.771985864808    -0.220909924884     1.007825032070
           H          1.614424041495    -0.424338717005     0.867698876376     1.007825032070
           H          2.031406882568    -0.118726672288    -0.815695410472     1.007825032070
           C          1.493444676926    -0.777805791807    -0.147142621347    12.000000000000

  Nuclear repulsion =  133.240213118761119
  Reference energy  = -157.352754487671803

  ==> Basis Set <==

  Basis Set: AUG-CC-PVTZ
    Blend: AUG-CC-PVTZ
    Number of shells: 146
    Number of basis function: 414
    Number of Cartesian functions: 470
    Spherical Harmonics?: true
    Max angular momentum: 3

  ==> CGRSolver (by Rob Parrish) <==

   Number of roots    =         1
   Preconditioning    =    JACOBI
   Convergence cutoff =     1E-06
   Maximum iterations =       100

  ==> CPHFRHamiltonian (by Rob Parrish) <== 

  ==> DFJK: Density-Fitted J/K Matrices <==

    J tasked:                  Yes
    K tasked:                  Yes
    wK tasked:                  No
    OpenMP threads:              1
    Integrals threads:           1
    Memory (MB):               715
    Algorithm:                Core
    Integral Cache:           NONE
    Schwarz Cutoff:          1E-12
    Fitting Condition:       1E-12

   => Auxiliary Basis Set <=

  Basis Set: (AUG-CC-PVTZ AUX)
    Blend: AUG-CC-PVTZ-JKFIT
    Number of shells: 260
    Number of basis function: 876
    Number of Cartesian functions: 1074
    Spherical Harmonics?: true
    Max angular momentum: 4

  ==> CPHF Iterations <==

  => Iterations <=

             Iter  Converged  Remaining    Residual
  CGR           1          0          1   8.578E-02
  CGR           2          0          1   1.359E-02
  CGR           3          0          1   3.279E-03
  CGR           4          0          1   8.198E-04
  CGR           5          0          1   1.766E-04
  CGR           6          0          1   3.229E-05
  CGR           7          0          1   5.651E-06
  CGR           8          0          1   1.099E-06
  CGR           9          1          0   1.417E-07

    CGRSolver converged.

  ==> DFCorrGrad: Density-Fitted Correlated Gradients <==

    OpenMP threads:              1
    Integrals threads:           1
    Memory (MB):               715
    Schwarz Cutoff:          0E+00
    Fitting Condition:       1E-12

   => Auxiliary Basis Set <=

  Basis Set: (AUG-CC-PVTZ AUX)
    Blend: AUG-CC-PVTZ-JKFIT
    Number of shells: 260
    Number of basis function: 876
    Number of Cartesian functions: 1074
    Spherical Harmonics?: true
    Max angular momentum: 4

	-----------------------------------------------------------
	 ==================> DF-MP2 Energies <==================== 
	-----------------------------------------------------------
	 Reference Energy          =    -157.3527544876718025 [Eh]
	 Singles Energy            =      -0.0000000000000000 [Eh]
	 Same-Spin Energy          =      -0.1657796700261672 [Eh]
	 Opposite-Spin Energy      =      -0.6397863218764499 [Eh]
	 Correlation Energy        =      -0.8055659919026170 [Eh]
	 Total Energy              =    -158.1583204795744280 [Eh]
	-----------------------------------------------------------
	 ================> DF-SCS-MP2 Energies <================== 
	-----------------------------------------------------------
	 SCS Same-Spin Scale       =       0.3333333333333333 [-]
	 SCS Opposite-Spin Scale   =       1.2000000000000000 [-]
	 SCS Same-Spin Energy      =      -0.0552598900087224 [Eh]
	 SCS Opposite-Spin Energy  =      -0.7677435862517399 [Eh]
	 SCS Correlation Energy    =      -0.8230034762604623 [Eh]
	 SCS Total Energy          =    -158.1757579639322557 [Eh]
	-----------------------------------------------------------


  -Total Gradient:
     Atom            X                  Y                   Z
    ------   -----------------  -----------------  -----------------
       1       -0.001842899035    -0.000407049704    -0.003961905695
       2        0.001230254634    -0.002943390318    -0.002427776265
       3        0.002488776905     0.001699584007    -0.002661131899
       4       -0.003099299207     0.000165713871     0.013814534773
       5        0.002193239394    -0.002273239756     0.003130106622
       6       -0.000762136497    -0.003402259832     0.004079873657
       7        0.001043876685     0.011953279468    -0.013673020446
       8        0.003412337602     0.004258403252    -0.000020743379
       9        0.001344751388     0.003419484497     0.002689600544
      10       -0.010286908913    -0.015001663630    -0.001417354997
      11       -0.003227110473     0.002376119058    -0.000656966626
      12       -0.002622463510    -0.001060398388    -0.003281682949
      13       -0.003102764045    -0.001851909416     0.001565708013
      14        0.013230345071     0.003067326891     0.002820758647


*** tstop() called on gpu-1-16.local at Wed Jun 14 14:37:49 2017
Module time:
	user time   =     400.00 seconds =       6.67 minutes
	system time =       4.02 seconds =       0.07 minutes
	total time  =        404 seconds =       6.73 minutes
Total time:
	user time   =     783.62 seconds =      13.06 minutes
	system time =       7.69 seconds =       0.13 minutes
	total time  =        792 seconds =      13.20 minutes

			-----------------------------------------
			 OPTKING 2.0: for geometry optimizations 
			  - R.A. King,  Bethel University        
			-----------------------------------------

	Previous internal coordinate definitions found.
	---Fragment 1 Geometry and Gradient---
	 H          -0.0852953740        1.7419469797        3.0971154033
	 H          -2.5852137209        3.6761706882        2.0700921520
	 H          -3.1241009579        0.4501341613        2.6819485588
	 C          -1.7758097738        1.8018172158        1.9505815108
	 H          -2.8513988615        1.2290258889       -1.9163847976
	 H           0.2021651186        2.5145547968       -1.5256142814
	 C          -1.1384263311        1.1491161015       -0.7989930657
	 H          -0.9879388437       -2.7634361189        0.2689089631
	 H          -0.1728218497       -2.1890427836       -2.9139883797
	 C           0.0162097894       -1.5049906612       -0.9947109662
	 H           3.6178163902       -3.3485679958       -0.4174592581
	 H           3.0508193008       -0.8018839627        1.6397132422
	 H           3.8388026725       -0.2243608953       -1.5414409336
	 C           2.8222014340       -1.4698399311       -0.2780592568
	            -0.0018428990       -0.0004070497       -0.0039619057
	             0.0012302546       -0.0029433903       -0.0024277763
	             0.0024887769        0.0016995840       -0.0026611319
	            -0.0030992992        0.0001657139        0.0138145348
	             0.0021932394       -0.0022732398        0.0031301066
	            -0.0007621365       -0.0034022598        0.0040798737
	             0.0010438767        0.0119532795       -0.0136730204
	             0.0034123376        0.0042584033       -0.0000207434
	             0.0013447514        0.0034194845        0.0026896005
	            -0.0102869089       -0.0150016636       -0.0014173550
	            -0.0032271105        0.0023761191       -0.0006569666
	            -0.0026224635       -0.0010603984       -0.0032816829
	            -0.0031027640       -0.0018519094        0.0015657080
	             0.0132303451        0.0030673269        0.0028207586

	---Fragment 1 Intrafragment Coordinates---
	 - Coordinate -           - BOHR/RAD -       - ANG/DEG -
	 R(1,4)           =         2.043517	       1.081383
	 R(2,4)           =         2.045145	       1.082244
	 R(3,4)           =         2.044464	       1.081884
	 R(4,7)           =         2.896970	       1.533011
	 R(5,7)           =         2.046760	       1.083099
	 R(6,7)           =         2.046848	       1.083145
	 R(7,10)          =         2.900995	       1.535141
	 R(8,10)          =         2.046640	       1.083035
	 R(9,10)          =         2.046286	       1.082848
	 R(10,14)         =         2.896276	       1.532643
	 R(11,14)         =         2.045007	       1.082171
	 R(12,14)         =         2.043596	       1.081424
	 R(13,14)         =         2.044708	       1.082013
	 B(1,4,2)         =         1.898075	     108.751671
	 B(1,4,3)         =         1.902321	     108.994958
	 B(1,4,7)         =         1.921864	     110.114724
	 B(2,4,3)         =         1.900775	     108.906396
	 B(2,4,7)         =         1.927330	     110.427895
	 B(3,4,7)         =         1.913111	     109.613198
	 B(4,7,5)         =         1.902043	     108.979051
	 B(4,7,6)         =         1.907879	     109.313406
	 B(4,7,10)        =         1.936636	     110.961056
	 B(5,7,6)         =         1.905295	     109.165364
	 B(5,7,10)        =         1.909212	     109.389795
	 B(6,7,10)        =         1.902538	     109.007370
	 B(7,10,8)        =         1.902465	     109.003225
	 B(7,10,9)        =         1.909591	     109.411511
	 B(7,10,14)       =         1.936717	     110.965724
	 B(8,10,9)        =         1.905212	     109.160632
	 B(8,10,14)       =         1.907131	     109.270551
	 B(9,10,14)       =         1.902481	     109.004136
	 B(10,14,11)      =         1.927202	     110.420538
	 B(10,14,12)      =         1.922560	     110.154593
	 B(10,14,13)      =         1.913668	     109.645119
	 B(11,14,12)      =         1.897289	     108.706627
	 B(11,14,13)      =         1.900799	     108.907763
	 B(12,14,13)      =         1.901937	     108.972966
	 D(1,4,7,5)       =        -3.136365	    -179.700477
	 D(1,4,7,6)       =        -1.055313	     -60.465001
	 D(1,4,7,10)      =         1.043502	      59.788243
	 D(2,4,7,5)       =        -1.039972	     -59.586029
	 D(2,4,7,6)       =         1.041079	      59.649448
	 D(2,4,7,10)      =         3.139894	     179.902692
	 D(3,4,7,5)       =         1.054175	      60.399756
	 D(3,4,7,6)       =         3.135226	     179.635233
	 D(3,4,7,10)      =        -1.049144	     -60.111523
	 D(4,7,10,8)      =         0.705969	      40.449028
	 D(4,7,10,9)      =         2.788184	     159.751188
	 D(4,7,10,14)     =        -1.395094	     -79.932982
	 D(5,7,10,8)      =        -1.393097	     -79.818562
	 D(5,7,10,9)      =         0.689119	      39.483598
	 D(5,7,10,14)     =         2.789026	     159.799428
	 D(6,7,10,8)      =         2.807954	     160.883924
	 D(6,7,10,9)      =        -1.393016	     -79.813916
	 D(6,7,10,14)     =         0.706892	      40.501914
	 D(7,10,14,11)    =         3.139285	     179.867806
	 D(7,10,14,12)    =         1.043506	      59.788469
	 D(7,10,14,13)    =        -1.049450	     -60.129032
	 D(8,10,14,11)    =         1.040993	      59.644524
	 D(8,10,14,12)    =        -1.054786	     -60.434813
	 D(8,10,14,13)    =         3.135444	     179.647686
	 D(9,10,14,11)    =        -1.039777	     -59.574811
	 D(9,10,14,12)    =        -3.135556	    -179.654148
	 D(9,10,14,13)    =         1.054674	      60.428351

	Current energy   :      -158.1583204796

	Energy change for the previous step:
		Projected    :        -0.0043155090
		Actual       :        -0.0029430499

	Performing BFGS update.
	Previous computed or guess Hessian on step 1.
	Steps to be used in Hessian update: 1
	Adding user-defined constraint: Fragment 1; Coordinate 49:
		Value =    -1.395094; Fixed value    =    -1.396260
		Force =    -0.000612; Force constant =     0.525000
	Removing off-diagonal coupling between coordinate 49 and others.
	Taking RFO optimization step.
	Going to follow RFO solution 1.
	Using RFO vector 1.

	Determining step-restricting scale parameter for RS-RFO.
	Maximum step size allowed    0.10000

	 Iter      |step|        alpha        rfo_root  
	------------------------------------------------
	    0     0.17027       1.00000           1
	    1     0.13959       3.95141           1
	    2     0.11627      11.38132           1
	    3     0.10352      19.23131           1
	    4     0.10022      21.95219           1
	    5     0.10000      22.14214           1
	------------------------------------------------
	Norm of target step-size    0.10000
	Projected energy change by RFO approximation:        -0.0011899096

	Back-transformation to cartesian coordinates...
	Could not converge backtransformation.
	Using first guess instead.

	--- Internal Coordinate Step in ANG or DEG, aJ/ANG or AJ/DEG ---
	 ---------------------------------------------------------------------------
	   Coordinate                Previous        Force       Change         New 
	   ----------                --------       ------       ------       ------
	    1 R(1,4)          =      1.081383     0.030776     0.006242     1.087625
	    2 R(2,4)          =      1.082244     0.027405     0.005031     1.087275
	    3 R(3,4)          =      1.081884     0.030623     0.005895     1.087779
	    4 R(4,7)          =      1.533011    -0.036711    -0.009933     1.523077
	    5 R(5,7)          =      1.083099     0.029932     0.005580     1.088679
	    6 R(6,7)          =      1.083145     0.034744     0.006856     1.090001
	    7 R(7,10)         =      1.535141    -0.031075    -0.008674     1.526467
	    8 R(8,10)         =      1.083035     0.035471     0.006979     1.090014
	    9 R(9,10)         =      1.082848     0.031225     0.005807     1.088655
	   10 R(10,14)        =      1.532643    -0.035313    -0.009598     1.523045
	   11 R(11,14)        =      1.082171     0.027959     0.005122     1.087293
	   12 R(12,14)        =      1.081424     0.030645     0.006203     1.087628
	   13 R(13,14)        =      1.082013     0.029973     0.005774     1.087786
	   14 B(1,4,2)        =    108.751671    -0.000183    -0.820225   107.931445
	   15 B(1,4,3)        =    108.994958    -0.000148    -0.757890   108.237067
	   16 B(1,4,7)        =    110.114724     0.000189     0.893533   111.008258
	   17 B(2,4,3)        =    108.906396    -0.000139    -0.651541   108.254854
	   18 B(2,4,7)        =    110.427895     0.000180     0.778376   111.206271
	   19 B(3,4,7)        =    109.613198     0.000091     0.484311   110.097509
	   20 B(4,7,5)        =    108.979051    -0.000066    -0.122060   108.856991
	   21 B(4,7,6)        =    109.313406    -0.000034     0.138155   109.451561
	   22 B(4,7,10)       =    110.961056     0.000271     1.162112   112.123168
	   23 B(5,7,6)        =    109.165364    -0.000077    -1.174645   107.990719
	   24 B(5,7,10)       =    109.389795    -0.000025     0.036962   109.426757
	   25 B(6,7,10)       =    109.007370    -0.000074    -0.104002   108.903368
	   26 B(7,10,8)       =    109.003225    -0.000075    -0.106252   108.896973
	   27 B(7,10,9)       =    109.411511    -0.000026     0.027712   109.439223
	   28 B(7,10,14)      =    110.965724     0.000272     1.160506   112.126230
	   29 B(8,10,9)       =    109.160632    -0.000077    -1.171984   107.988648
	   30 B(8,10,14)      =    109.270551    -0.000031     0.164641   109.435192
	   31 B(9,10,14)      =    109.004136    -0.000068    -0.138031   108.866105
	   32 B(10,14,11)     =    110.420538     0.000182     0.783259   111.203797
	   33 B(10,14,12)     =    110.154593     0.000181     0.857785   111.012378
	   34 B(10,14,13)     =    109.645119     0.000089     0.468534   110.113653
	   35 B(11,14,12)     =    108.706627    -0.000178    -0.791501   107.915126
	   36 B(11,14,13)     =    108.907763    -0.000140    -0.652629   108.255134
	   37 B(12,14,13)     =    108.972966    -0.000144    -0.738342   108.234625
	   38 D(1,4,7,5)      =   -179.700477     0.000016     0.515336  -179.185142
	   39 D(1,4,7,6)      =    -60.465001    -0.000019    -0.896163   -61.361164
	   40 D(1,4,7,10)     =     59.788243    -0.000006    -0.187861    59.600382
	   41 D(2,4,7,5)      =    -59.586029     0.000018     0.583625   -59.002404
	   42 D(2,4,7,6)      =     59.649448    -0.000017    -0.827874    58.821574
	   43 D(2,4,7,10)     =    179.902692    -0.000004    -0.119572   179.783120
[...]
  CGR           3          0          1   3.313E-03
  CGR           4          0          1   8.243E-04
  CGR           5          0          1   1.781E-04
  CGR           6          0          1   3.296E-05
  CGR           7          0          1   5.727E-06
  CGR           8          0          1   1.115E-06
  CGR           9          1          0   1.361E-07

    CGRSolver converged.

  ==> DFCorrGrad: Density-Fitted Correlated Gradients <==

    OpenMP threads:              1
    Integrals threads:           1
    Memory (MB):               715
    Schwarz Cutoff:          0E+00
    Fitting Condition:       1E-12

   => Auxiliary Basis Set <=

  Basis Set: (AUG-CC-PVTZ AUX)
    Blend: AUG-CC-PVTZ-JKFIT
    Number of shells: 260
    Number of basis function: 876
    Number of Cartesian functions: 1074
    Spherical Harmonics?: true
    Max angular momentum: 4

	-----------------------------------------------------------
	 ==================> DF-MP2 Energies <==================== 
	-----------------------------------------------------------
	 Reference Energy          =    -157.3539952986174342 [Eh]
	 Singles Energy            =      -0.0000000000000000 [Eh]
	 Same-Spin Energy          =      -0.1657549363937042 [Eh]
	 Opposite-Spin Energy      =      -0.6397133653047622 [Eh]
	 Correlation Energy        =      -0.8054683016984664 [Eh]
	 Total Energy              =    -158.1594636003158882 [Eh]
	-----------------------------------------------------------
	 ================> DF-SCS-MP2 Energies <================== 
	-----------------------------------------------------------
	 SCS Same-Spin Scale       =       0.3333333333333333 [-]
	 SCS Opposite-Spin Scale   =       1.2000000000000000 [-]
	 SCS Same-Spin Energy      =      -0.0552516454645681 [Eh]
	 SCS Opposite-Spin Energy  =      -0.7676560383657146 [Eh]
	 SCS Correlation Energy    =      -0.8229076838302827 [Eh]
	 SCS Total Energy          =    -158.1769029824477286 [Eh]
	-----------------------------------------------------------


  -Total Gradient:
     Atom            X                  Y                   Z
    ------   -----------------  -----------------  -----------------
       1       -0.000001318741     0.000004417577    -0.000008509497
       2       -0.000005619213     0.000006121239     0.000004609548
       3       -0.000003177312     0.000002844091     0.000005585161
       4       -0.001418359062    -0.000631174819    -0.000188477392
       5        0.000002062659     0.000007548272     0.000019521725
       6        0.000006419530     0.000005237925     0.000001446793
       7        0.002069555829     0.001012961812    -0.000321772494
       8       -0.000000922608    -0.000003559086     0.000007877225
       9        0.000017464804    -0.000001312437     0.000011829821
      10       -0.001042101021    -0.000686827712     0.001963170037
      11        0.000007527509    -0.000005633047    -0.000001380832
      12       -0.000006456602    -0.000006877175    -0.000003346740
      13        0.000006637697    -0.000001870866     0.000000391081
      14        0.000368286533     0.000298124229    -0.001490944435


*** tstop() called on gpu-1-16.local at Wed Jun 14 15:01:50 2017
Module time:
	user time   =     307.40 seconds =       5.12 minutes
	system time =       4.36 seconds =       0.07 minutes
	total time  =        312 seconds =       5.20 minutes
Total time:
	user time   =    2183.67 seconds =      36.39 minutes
	system time =      42.20 seconds =       0.70 minutes
	total time  =       2233 seconds =      37.22 minutes

			-----------------------------------------
			 OPTKING 2.0: for geometry optimizations 
			  - R.A. King,  Bethel University        
			-----------------------------------------

	Previous internal coordinate definitions found.
	---Fragment 1 Geometry and Gradient---
	 H          -0.1482484993        1.7443328020        3.1601608046
	 H          -2.5962864404        3.7043808399        2.0741438185
	 H          -3.1916093683        0.4916953807        2.6967434389
	 C          -1.8054537954        1.8118020372        1.9447511037
	 H          -2.8610334717        1.2013068603       -1.9022979541
	 H           0.1407648825        2.5349149150       -1.5513301075
	 C          -1.1462950200        1.1296968048       -0.7638715805
	 H          -0.9801614559       -2.8013001265        0.2103038519
	 H          -0.1604914796       -2.1602031970       -2.9249192580
	 C           0.0468650296       -1.4786062005       -0.9925898213
	 H           3.6326688342       -3.3754800126       -0.4184127725
	 H           3.1342355186       -0.7967212385        1.6103016731
	 H           3.8884368173       -0.2705484023       -1.5834792628
	 C           2.8328011716       -1.4857684070       -0.3034517042
	            -0.0000013187        0.0000044176       -0.0000085095
	            -0.0000056192        0.0000061212        0.0000046095
	            -0.0000031773        0.0000028441        0.0000055852
	            -0.0014183591       -0.0006311748       -0.0001884774
	             0.0000020627        0.0000075483        0.0000195217
	             0.0000064195        0.0000052379        0.0000014468
	             0.0020695558        0.0010129618       -0.0003217725
	            -0.0000009226       -0.0000035591        0.0000078772
	             0.0000174648       -0.0000013124        0.0000118298
	            -0.0010421010       -0.0006868277        0.0019631700
	             0.0000075275       -0.0000056330       -0.0000013808
	            -0.0000064566       -0.0000068772       -0.0000033467
	             0.0000066377       -0.0000018709        0.0000003911
	             0.0003682865        0.0002981242       -0.0014909444

	---Fragment 1 Intrafragment Coordinates---
	 - Coordinate -           - BOHR/RAD -       - ANG/DEG -
	 R(1,4)           =         2.056235	       1.088113
	 R(2,4)           =         2.055240	       1.087586
	 R(3,4)           =         2.056599	       1.088306
	 R(4,7)           =         2.869912	       1.518692
	 R(5,7)           =         2.059483	       1.089832
	 R(6,7)           =         2.061856	       1.091087
	 R(7,10)          =         2.877358	       1.522632
	 R(8,10)          =         2.061857	       1.091088
	 R(9,10)          =         2.059483	       1.089831
	 R(10,14)         =         2.869913	       1.518693
	 R(11,14)         =         2.055241	       1.087587
	 R(12,14)         =         2.056235	       1.088112
	 R(13,14)         =         2.056598	       1.088305
	 B(1,4,2)         =         1.878760	     107.645027
	 B(1,4,3)         =         1.881802	     107.819338
	 B(1,4,7)         =         1.944386	     111.405089
	 B(2,4,3)         =         1.884640	     107.981921
	 B(2,4,7)         =         1.946214	     111.509839
	 B(3,4,7)         =         1.925533	     110.324887
	 B(4,7,5)         =         1.898860	     108.796665
	 B(4,7,6)         =         1.919673	     109.989145
	 B(4,7,10)        =         1.966777	     112.688040
	 B(5,7,6)         =         1.859721	     106.554170
	 B(5,7,10)        =         1.910109	     109.441169
	 B(6,7,10)        =         1.905613	     109.183570
	 B(7,10,8)        =         1.905612	     109.183519
	 B(7,10,9)        =         1.910109	     109.441193
	 B(7,10,14)       =         1.966777	     112.688028
	 B(8,10,9)        =         1.859722	     106.554198
	 B(8,10,14)       =         1.919672	     109.989112
	 B(9,10,14)       =         1.898861	     108.796713
	 B(10,14,11)      =         1.946212	     111.509746
	 B(10,14,12)      =         1.944382	     111.404857
	 B(10,14,13)      =         1.925534	     110.324946
	 B(11,14,12)      =         1.878761	     107.645060
	 B(11,14,13)      =         1.884642	     107.982024
	 B(12,14,13)      =         1.881805	     107.819484
	 D(1,4,7,5)       =         3.130399	     179.358631
	 D(1,4,7,6)       =        -1.121848	     -64.277142
	 D(1,4,7,10)      =         1.008799	      57.799953
	 D(2,4,7,5)       =        -1.053259	     -60.347301
	 D(2,4,7,6)       =         0.977680	      56.016927
	 D(2,4,7,10)      =         3.108327	     178.094022
	 D(3,4,7,5)       =         1.040950	      59.642045
	 D(3,4,7,6)       =         3.071889	     176.006272
	 D(3,4,7,10)      =        -1.080649	     -61.916633
	 D(4,7,10,8)      =         0.747116	      42.806575
	 D(4,7,10,9)      =         2.776537	     159.083840
	 D(4,7,10,14)     =        -1.391443	     -79.723785
	 D(5,7,10,8)      =        -1.368089	     -78.385730
	 D(5,7,10,9)      =         0.661332	      37.891535
	 D(5,7,10,14)     =         2.776538	     159.083910
	 D(6,7,10,8)      =         2.885675	     165.337023
	 D(6,7,10,9)      =        -1.368089	     -78.385712
	 D(6,7,10,14)     =         0.747117	      42.806663
	 D(7,10,14,11)    =         3.108329	     178.094155
	 D(7,10,14,12)    =         1.008805	      57.800267
	 D(7,10,14,13)    =        -1.080645	     -61.916390
	 D(8,10,14,11)    =         0.977684	      56.017158
	 D(8,10,14,12)    =        -1.121841	     -64.276730
	 D(8,10,14,13)    =         3.071895	     176.006613
	 D(9,10,14,11)    =        -1.053256	     -60.347112
	 D(9,10,14,12)    =         3.130405	     179.359000
	 D(9,10,14,13)    =         1.040955	      59.642342

	Current energy   :      -158.1594636003

	Energy change for the previous step:
		Projected    :        -0.0000004409
		Actual       :         0.0000009892

	Performing BFGS update.
	Previous computed or guess Hessian on step 1.
	Steps to be used in Hessian update: 5 4
	Adding user-defined constraint: Fragment 1; Coordinate 49:
		Value =    -1.391443; Fixed value    =    -1.396260
		Force =    -0.003011; Force constant =     0.625000
	Removing off-diagonal coupling between coordinate 49 and others.
	Taking RFO optimization step.
	Going to follow RFO solution 1.
	Using RFO vector 1.
	Norm of target step-size    0.00165
	Projected energy change by RFO approximation:        -0.0000001281

	Back-transformation to cartesian coordinates...
	Successfully converged to displaced geometry.

	--- Internal Coordinate Step in ANG or DEG, aJ/ANG or AJ/DEG ---
	 ---------------------------------------------------------------------------
	   Coordinate                Previous        Force       Change         New 
	   ----------                --------       ------       ------       ------
	    1 R(1,4)          =      1.088113     0.000051     0.000034     1.088147
	    2 R(2,4)          =      1.087586    -0.000067     0.000012     1.087598
	    3 R(3,4)          =      1.088306    -0.000019     0.000028     1.088334
	    4 R(4,7)          =      1.518692    -0.000041    -0.000050     1.518642
	    5 R(5,7)          =      1.089832     0.000101     0.000015     1.089846
	    6 R(6,7)          =      1.091087    -0.000058     0.000006     1.091093
	    7 R(7,10)         =      1.522632    -0.000508    -0.000188     1.522444
	    8 R(8,10)         =      1.091088    -0.000060     0.000006     1.091094
	    9 R(9,10)         =      1.089831     0.000102     0.000016     1.089847
	   10 R(10,14)        =      1.518693    -0.000043    -0.000050     1.518643
	   11 R(11,14)        =      1.087587    -0.000067     0.000012     1.087599
	   12 R(12,14)        =      1.088112     0.000052     0.000034     1.088146
	   13 R(13,14)        =      1.088305    -0.000017     0.000028     1.088333
	   14 B(1,4,2)        =    107.645027     0.000000    -0.000425   107.644602
	   15 B(1,4,3)        =    107.819338    -0.000000    -0.000454   107.818884
	   16 B(1,4,7)        =    111.405089     0.000001     0.007989   111.413078
	   17 B(2,4,3)        =    107.981921     0.000001    -0.000248   107.981672
	   18 B(2,4,7)        =    111.509839    -0.000000    -0.007335   111.502504
	   19 B(3,4,7)        =    110.324887    -0.000001     0.000433   110.325320
	   20 B(4,7,5)        =    108.796665    -0.000002     0.015668   108.812333
	   21 B(4,7,6)        =    109.989145     0.000004     0.000881   109.990027
	   22 B(4,7,10)       =    112.688040    -0.000002    -0.004719   112.683320
	   23 B(5,7,6)        =    106.554170    -0.000000     0.000191   106.554361
	   24 B(5,7,10)       =    109.441169    -0.000000    -0.007319   109.433850
	   25 B(6,7,10)       =    109.183570     0.000000    -0.004429   109.179141
	   26 B(7,10,8)       =    109.183519     0.000000    -0.004449   109.179070
	   27 B(7,10,9)       =    109.441193    -0.000000    -0.007330   109.433862
	   28 B(7,10,14)      =    112.688028    -0.000002    -0.004667   112.683361
	   29 B(8,10,9)       =    106.554198    -0.000000     0.000192   106.554390
	   30 B(8,10,14)      =    109.989112     0.000004     0.000787   109.989900
	   31 B(9,10,14)      =    108.796713    -0.000002     0.015737   108.812449
	   32 B(10,14,11)     =    111.509746    -0.000000    -0.007365   111.502382
	   33 B(10,14,12)     =    111.404857     0.000001     0.008029   111.412886
	   34 B(10,14,13)     =    110.324946    -0.000001     0.000252   110.325198
	   35 B(11,14,12)     =    107.645060     0.000000    -0.000352   107.644708
	   36 B(11,14,13)     =    107.982024     0.000001    -0.000237   107.981787
	   37 B(12,14,13)     =    107.819484    -0.000000    -0.000358   107.819126
	   38 D(1,4,7,5)      =    179.358631    -0.000000    -0.017629   179.341002
	   39 D(1,4,7,6)      =    -64.277142    -0.000000    -0.007899   -64.285041
	   40 D(1,4,7,10)     =     57.799953     0.000000    -0.016220    57.783733
	   41 D(2,4,7,5)      =    -60.347301    -0.000000    -0.017714   -60.365014
	   42 D(2,4,7,6)      =     56.016927    -0.000000    -0.007984    56.008942
	   43 D(2,4,7,10)     =    178.094022     0.000000    -0.016305   178.077717
	   44 D(3,4,7,5)      =     59.642045    -0.000000    -0.022542    59.619503
	   45 D(3,4,7,6)      =    176.006272    -0.000000    -0.012812   175.993460
	   46 D(3,4,7,10)     =    -61.916633     0.000000    -0.021133   -61.937765
	   47 D(4,7,10,8)     =     42.806575    -0.000001    -0.009253    42.797323
	   48 D(4,7,10,9)     =    159.083840    -0.000001    -0.015658   159.068182
	   49 D(4,7,10,14)    =    -79.723785    -0.000002    -0.003897   -79.727682
	   50 D(5,7,10,8)     =    -78.385730    -0.000000    -0.020899   -78.406629
	   51 D(5,7,10,9)     =     37.891535    -0.000000    -0.027305    37.864231
	   52 D(5,7,10,14)    =    159.083910    -0.000001    -0.015544   159.068366
	   53 D(6,7,10,8)     =    165.337023     0.000000    -0.014509   165.322514
	   54 D(6,7,10,9)     =    -78.385712    -0.000000    -0.020915   -78.406627
	   55 D(6,7,10,14)    =     42.806663    -0.000001    -0.009154    42.797509
	   56 D(7,10,14,11)   =    178.094155     0.000000    -0.016832   178.077323
	   57 D(7,10,14,12)   =     57.800267     0.000000    -0.016847    57.783420
	   58 D(7,10,14,13)   =    -61.916390     0.000000    -0.021785   -61.938176
	   59 D(8,10,14,11)   =     56.017158    -0.000000    -0.008455    56.008704
	   60 D(8,10,14,12)   =    -64.276730    -0.000000    -0.008470   -64.285199
	   61 D(8,10,14,13)   =    176.006613    -0.000000    -0.013408   175.993205
	   62 D(9,10,14,11)   =    -60.347112    -0.000000    -0.018172   -60.365285
	   63 D(9,10,14,12)   =    179.359000    -0.000000    -0.018187   179.340812
	   64 D(9,10,14,13)   =     59.642342    -0.000000    -0.023126    59.619216
	 ---------------------------------------------------------------------------
	Successfully symmetrized geometry.
	 Forces used to impose fixed constraints are not included.
	  Forces zeroed: 49 

  ==> Convergence Check <==

  Measures of convergence in internal coordinates in au.
  Criteria marked as inactive (o), active & met (*), and active & unmet ( ).
  ---------------------------------------------------------------------------------------------
   Step     Total Energy     Delta E     MAX Force     RMS Force      MAX Disp      RMS Disp   
  ---------------------------------------------------------------------------------------------
    Convergence Criteria    1.00e-06 *    3.00e-04 *             o    1.20e-03 *             o
  ---------------------------------------------------------------------------------------------
      6    -158.15946360    9.89e-07 *    6.17e-05 *    2.05e-05 o    4.77e-04 *    2.06e-04 o  ~
  ---------------------------------------------------------------------------------------------


  **** Optimization is complete! (in 6 steps) ****

  ==> Optimization Summary <==

  Measures of convergence in internal coordinates in au.
  --------------------------------------------------------------------------------------------------------------- ~
   Step         Total Energy             Delta E       MAX Force       RMS Force        MAX Disp        RMS Disp  ~
  --------------------------------------------------------------------------------------------------------------- ~
      1    -158.155377429638   -158.155377429638      0.01304677      0.00548097      0.02550427      0.01250500  ~
      2    -158.158320479574     -0.002943049936      0.00445586      0.00217269      0.03212586      0.01252109  ~
      3    -158.159272154774     -0.000951675199      0.00131693      0.00054821      0.03615911      0.01252253  ~
      4    -158.159449537406     -0.000177382632      0.00064485      0.00014453      0.02084919      0.00980825  ~
      5    -158.159464589510     -0.000015052104      0.00013555      0.00003667      0.00139767      0.00055828  ~
      6    -158.159463600316      0.000000989194      0.00009998      0.00002397      0.00047656      0.00020595  ~
  --------------------------------------------------------------------------------------------------------------- ~

	Writing optimization data to binary file.
	Final energy is   -158.1594636003159
	Final (previous) structure:
	Cartesian Geometry (in Angstrom)
	    H    -0.0784497270   0.9230611630   1.6722850733
	    H    -1.3738956112   1.9602739124   1.0975896361
	    H    -1.6889269364   0.2601939891   1.4270551653
	    C    -0.9554049997   0.9587643445   1.0291179605
	    H    -1.5139937063   0.6357042110  -1.0066527212
	    H     0.0744895676   1.3414191987  -0.8209285359
	    C    -0.6065931989   0.5978098017  -0.4042234307
	    H    -0.5186791032  -1.4823841814   0.1112880053
	    H    -0.0849284332  -1.1431302978  -1.5478006083
	    C     0.0247999055  -0.7824447018  -0.5252559109
	    H     1.9223255534  -1.7862270907  -0.2214145030
	    H     1.6585660028  -0.4216067210   0.8521349443
	    H     2.0576721408  -0.1431680483  -0.8379411361
	    C     1.4990538165  -0.7862347782  -0.1605797258
	Saving final (previous) structure.
			--------------------------
			 OPTKING Finished Execution 
			--------------------------

    Final optimized geometry and variables:
    Molecular point group: c1
    Full point group: C1

    Geometry (in Angstrom), charge = 0, multiplicity = 1:

    H           -0.078449727035     0.923061163027     1.672285073268
    H           -1.373895611243     1.960273912410     1.097589636105
    H           -1.688926936401     0.260193989061     1.427055165264
    C           -0.955404999674     0.958764344538     1.029117960467
    H           -1.513993706252     0.635704211017    -1.006652721231
    H            0.074489567568     1.341419198715    -0.820928535915
    C           -0.606593198882     0.597809801720    -0.404223430689
    H           -0.518679103182    -1.482384181375     0.111288005280
    H           -0.084928433181    -1.143130297785    -1.547800608308
    C            0.024799905546    -0.782444701762    -0.525255910888
    H            1.922325553402    -1.786227090737    -0.221414503007
    H            1.658566002782    -0.421606721038     0.852134944347
    H            2.057672140769    -0.143168048320    -0.837941136140
    C            1.499053816484    -0.786234778234    -0.160579725791

	Cleaning optimization helper files.

*** Psi4 exiting successfully. Buy a developer a beer!
